# vtk DataFile Version 2.0
Simplicial Mesh Example
ASCII
DATASET UNSTRUCTURED_GRID
POINTS 9490 double
4.132646e+04 -3.761110e+05 -2.495947e+04
1.739130e+04 -4.000000e+05 0.000000e+00
1.424943e+04 -3.757412e+05 -2.497841e+04
3.478261e+04 -4.000000e+05 -2.478841e+04
3.431474e+04 -3.668361e+05 0.000000e+00
6.536071e+04 -3.800007e+05 -2.495579e+04
5.217391e+04 -4.000000e+05 0.000000e+00
5.217391e+04 -4.000000e+05 -5.000000e+04
6.848295e+04 -3.663208e+05 -5.000000e+04
1.739130e+04 -4.000000e+05 -5.000000e+04
3.422046e+04 -3.663210e+05 -5.000000e+04
-4.000000e+05 1.043476e+05 -2.478869e+04
-3.778006e+05 1.290431e+05 -2.559237e+04
-3.668348e+05 1.033122e+05 0.000000e+00
-3.750401e+05 1.075547e+05 -3.181274e+04
4.000000e+05 -3.652174e+05 -2.500000e+04
3.692598e+05 -3.333058e+05 -2.499312e+04
3.776504e+05 -3.747415e+05 -2.247043e+04
3.693733e+05 -3.529960e+05 0.000000e+00
-4.000000e+05 8.695652e+04 0.000000e+00
-3.760516e+05 8.212939e+04 -2.543564e+04
-3.482879e+05 1.253124e+05 -2.574623e+04
-3.665651e+05 9.874016e+04 -5.000000e+04
-3.495547e+05 9.060720e+04 -2.563270e+04
-3.071185e+05 -3.486990e+05 -2.261025e+04
-3.153762e+05 -3.243183e+05 -5.000000e+04
-3.287827e+05 -3.355430e+05 -2.504110e+04
-3.095113e+05 -3.153966e+05 -2.507638e+04
-2.962358e+05 -3.323448e+05 0.000000e+00
-3.357456e+05 -3.422369e+05 0.000000e+00
-2.772919e+05 -3.669732e+05 0.000000e+00
-2.934123e+05 -3.742563e+05 -2.511903e+04
-2.806419e+05 -3.463229e+05 -2.661752e+04
-3.140042e+05 -3.607419e+05 -5.000000e+04
-3.320497e+05 -3.703516e+05 -2.524928e+04
-3.224905e+05 6.841821e+04 -2.756000e+04
-3.000000e+05 4.234958e+04 -2.422604e+04
-3.000000e+05 5.362570e+04 -5.000000e+04
-3.000000e+05 7.749820e+04 -2.479801e+04
3.227610e+05 -1.685566e+05 -2.697912e+04
3.499303e+05 -1.919500e+05 -2.498446e+04
3.500600e+05 -1.567367e+05 -2.546429e+04
3.335574e+05 -1.858748e+05 0.000000e+00
3.000000e+05 -1.659466e+05 0.000000e+00
3.208602e+05 -1.947095e+05 -2.232217e+04
3.000000e+05 -1.806737e+05 -2.506219e+04
3.330650e+05 -1.842018e+05 -5.000000e+04
3.000000e+05 -1.978940e+05 -5.000000e+04
3.000000e+05 -1.638587e+05 -5.000000e+04
-1.949782e+05 -3.787045e+05 -2.503133e+04
-1.713812e+05 -3.663209e+05 -5.000000e+04
-1.725141e+05 -3.772415e+05 -2.530126e+04
-1.913043e+05 -4.000000e+05 -5.000000e+04
-1.972219e+05 -3.510331e+05 -2.499278e+04
-1.739069e+05 -4.000000e+05 -2.478809e+04
-1.716829e+05 -3.668361e+05 0.000000e+00
-1.913043e+05 -4.000000e+05 0.000000e+00
1.358880e+05 -3.243044e+05 -2.504137e+04
1.166322e+05 -3.000000e+05 -2.516475e+04
1.497984e+05 -3.000000e+05 -2.516553e+04
1.333333e+05 -3.000000e+05 -5.000000e+04
1.825802e+05 3.751615e+05 -2.720292e+04
2.119132e+05 3.796036e+05 -2.524922e+04
2.061857e+05 3.668333e+05 0.000000e+00
1.947422e+05 3.503722e+05 -2.524152e+04
1.565217e+05 4.000000e+05 0.000000e+00
1.528807e+05 3.759790e+05 -2.499953e+04
1.739069e+05 4.000000e+05 -2.478809e+04
1.716839e+05 3.668365e+05 0.000000e+00
1.913043e+05 4.000000e+05 0.000000e+00
1.565217e+05 4.000000e+05 -5.000000e+04
1.713714e+05 3.663108e+05 -5.000000e+04
1.613560e+05 3.500277e+05 -2.506640e+04
-8.982230e+04 3.792244e+05 -2.494679e+04
-6.535746e+04 3.800015e+05 -2.495585e+04
-6.848071e+04 3.663195e+05 -5.000000e+04
-8.695652e+04 4.000000e+05 -5.000000e+04
-6.956522e+04 4.000000e+05 -2.478801e+04
-9.132937e+04 3.518806e+05 -2.497956e+04
-8.695652e+04 4.000000e+05 0.000000e+00
-6.863978e+04 3.668364e+05 0.000000e+00
8.983161e+04 -3.792230e+05 -2.494676e+04
8.695652e+04 -4.000000e+05 -5.000000e+04
6.956522e+04 -4.000000e+05 -2.478801e+04
8.695652e+04 -4.000000e+05 0.000000e+00
9.134075e+04 -3.518804e+05 -2.497894e+04
6.864043e+04 -3.668360e+05 0.000000e+00
-1.485035e+05 -3.773486e+05 -2.721498e+04
-1.630495e+05 -3.485427e+05 -2.521974e+04
-1.185212e+05 -3.761066e+05 -2.504756e+04
-1.217391e+05 -4.000000e+05 -5.000000e+04
-1.370985e+05 -3.663236e+05 -5.000000e+04
-1.217391e+05 -4.000000e+05 0.000000e+00
-1.391294e+05 -4.000000e+05 -2.478846e+04
-1.373218e+05 -3.668365e+05 0.000000e+00
-1.565217e+05 -4.000000e+05 0.000000e+00
-1.276844e+05 -3.500075e+05 -2.505733e+04
-3.784905e+05 1.568709e+05 -2.476156e+04
-3.664298e+05 1.337587e+05 -5.000000e+04
-3.514457e+05 1.599418e+05 -2.483113e+04
-4.000000e+05 1.565217e+05 -5.000000e+04
-4.000000e+05 1.391294e+05 -2.478846e+04
-3.668349e+05 1.375908e+05 0.000000e+00
-4.000000e+05 1.565217e+05 0.000000e+00
3.668265e+05 -1.714683e+05 0.000000e+00
4.000000e+05 -1.913043e+05 0.000000e+00
4.000000e+05 -1.739069e+05 -2.478809e+04
4.000000e+05 -1.565217e+05 0.000000e+00
3.763528e+05 1.812702e+05 -2.493822e+04
4.000000e+05 1.565217e+05 0.000000e+00
3.764050e+05 1.528124e+05 -2.490916e+04
4.000000e+05 1.739130e+05 -2.478510e+04
3.668383e+05 1.722952e+05 0.000000e+00
3.797466e+05 2.119345e+05 -2.497186e+04
4.000000e+05 1.913043e+05 -5.000000e+04
3.662642e+05 2.068445e+05 -5.000000e+04
3.507120e+05 1.619053e+05 -2.490325e+04
3.662844e+05 1.729597e+05 -5.000000e+04
4.000000e+05 1.565217e+05 -5.000000e+04
3.776488e+05 -7.900637e+04 -2.735718e+04
3.762845e+05 -4.901174e+04 -2.508786e+04
3.663605e+05 -6.676216e+04 -5.000000e+04
3.502306e+05 -5.807827e+04 -2.511783e+04
4.000000e+05 -5.217391e+04 -5.000000e+04
3.773063e+05 -1.038824e+05 -2.578879e+04
4.000000e+05 -8.695652e+04 0.000000e+00
3.668372e+05 -1.026508e+05 0.000000e+00
4.000000e+05 -5.217391e+04 0.000000e+00
4.000000e+05 -6.956519e+04 -2.478879e+04
3.668380e+05 -6.826645e+04 0.000000e+00
4.000000e+05 -1.043476e+05 -2.478869e+04
-1.666667e+05 -3.000000e+05 -5.000000e+04
-1.833333e+05 -3.000000e+05 -2.518468e+04
-1.933582e+05 -3.216521e+05 -2.503520e+04
-1.657267e+05 -3.213415e+05 -2.506307e+04
-1.666667e+05 -3.000000e+05 0.000000e+00
3.334882e+05 -2.202831e+05 0.000000e+00
3.000000e+05 -1.994599e+05 0.000000e+00
3.000000e+05 -2.085861e+05 -2.501244e+04
-1.859359e+05 -3.331067e+05 -5.000000e+04
-1.862587e+05 -3.335758e+05 0.000000e+00
-4.132523e+04 3.761107e+05 -2.495957e+04
-3.478261e+04 4.000000e+05 -2.478841e+04
-5.217391e+04 4.000000e+05 -5.000000e+04
-1.739130e+04 4.000000e+05 -5.000000e+04
-1.424890e+04 3.757408e+05 -2.497844e+04
-3.421938e+04 3.663190e+05 -5.000000e+04
-5.217391e+04 4.000000e+05 0.000000e+00
-1.739130e+04 4.000000e+05 0.000000e+00
-3.431405e+04 3.668365e+05 0.000000e+00
-2.739007e+04 3.505180e+05 -2.498776e+04
-1.739130e+05 4.000000e+05 -2.478510e+04
-1.528672e+05 3.759826e+05 -2.500255e+04
-1.716148e+05 3.668263e+05 0.000000e+00
-1.825315e+05 3.751689e+05 -2.721318e+04
-1.913043e+05 4.000000e+05 0.000000e+00
-2.059314e+05 3.667832e+05 0.000000e+00
-2.118669e+05 3.796033e+05 -2.526514e+04
-1.612599e+05 3.500460e+05 -2.507149e+04
-1.913043e+05 4.000000e+05 -5.000000e+04
-2.056558e+05 3.663226e+05 -5.000000e+04
-1.712892e+05 3.663242e+05 -5.000000e+04
-1.565217e+05 4.000000e+05 -5.000000e+04
3.507710e+05 -3.071241e+05 -1.983709e+04
3.472371e+05 -2.783609e+05 -2.630278e+04
3.316724e+05 -2.967750e+05 0.000000e+00
3.666108e+05 -2.775848e+05 0.000000e+00
3.309559e+05 -3.255688e+05 -2.698212e+04
3.397681e+05 -3.369212e+05 0.000000e+00
3.744093e+05 -2.934608e+05 -2.492539e+04
3.303054e+05 -2.869393e+05 -5.000000e+04
3.606270e+05 -3.135064e+05 -5.000000e+04
-3.238506e+05 1.781151e+05 -2.284516e+04
-3.335738e+05 1.866432e+05 0.000000e+00
-3.000000e+05 1.673499e+05 0.000000e+00
-3.000000e+05 2.005124e+05 0.000000e+00
-3.242363e+05 2.019112e+05 -2.479758e+04
-3.335722e+05 1.528704e+05 0.000000e+00
-3.219833e+05 1.550144e+05 -2.418889e+04
-3.331119e+05 1.814444e+05 -5.000000e+04
-3.500623e+05 1.947691e+05 -2.492389e+04
3.000000e+05 -1.480457e+05 -2.518612e+04
3.070808e+05 3.546107e+05 -1.714572e+04
2.838715e+05 3.432764e+05 -2.626473e+04
2.962288e+05 3.323792e+05 0.000000e+00
2.772894e+05 3.669850e+05 0.000000e+00
3.214547e+05 3.369143e+05 -2.636251e+04
3.136723e+05 3.607135e+05 -5.000000e+04
2.935138e+05 3.747013e+05 -2.499119e+04
3.357389e+05 3.423035e+05 0.000000e+00
3.310854e+05 3.708053e+05 -2.520548e+04
-3.303425e+05 2.864208e+05 -5.000000e+04
-3.469504e+05 2.817468e+05 -2.677742e+04
-3.300427e+05 3.281790e+05 -2.631692e+04
-3.606526e+05 3.133330e+05 -5.000000e+04
-3.538099e+05 3.084519e+05 -1.787405e+04
-3.749470e+05 2.933940e+05 -2.493585e+04
-3.716865e+05 3.330494e+05 -2.604840e+04
-3.422611e+05 3.357632e+05 0.000000e+00
-3.323575e+05 2.962961e+05 0.000000e+00
-3.669772e+05 2.773495e+05 0.000000e+00
-3.208683e+05 1.285984e+05 -2.543766e+04
-3.000000e+05 1.341874e+05 0.000000e+00
-3.000000e+05 1.457374e+05 -2.479770e+04
-3.331557e+05 1.463574e+05 -5.000000e+04
-3.335717e+05 1.191216e+05 0.000000e+00
-3.000000e+05 1.116890e+05 -2.479816e+04
3.750985e+05 1.731082e+04 -2.495385e+04
3.668370e+05 3.487991e+04 0.000000e+00
3.766226e+05 5.120408e+04 -2.491509e+04
3.486553e+05 3.094323e+04 -2.470062e+04
3.664079e+05 2.208090e+03 -5.000000e+04
3.755591e+05 -1.521008e+04 -2.489784e+04
3.365423e+05 9.969610e+02 -2.491966e+04
3.668382e+05 4.985393e+02 0.000000e+00
4.000000e+05 8.858707e-04 -2.478866e+04
4.000000e+05 1.739130e+04 0.000000e+00
3.664904e+05 3.662308e+04 -5.000000e+04
4.000000e+05 1.739130e+04 -5.000000e+04
4.000000e+05 3.478261e+04 -2.478841e+04
3.241835e+05 -1.338846e+05 -2.511108e+04
3.331162e+05 -1.156285e+05 -5.000000e+04
3.331063e+05 -1.499070e+05 -5.000000e+04
3.000000e+05 -1.298234e+05 -5.000000e+04
3.000000e+05 -1.142814e+05 -2.518156e+04
3.501925e+05 -1.229656e+05 -2.536930e+04
3.335703e+05 -1.518628e+05 0.000000e+00
3.335746e+05 -1.178848e+05 0.000000e+00
3.000000e+05 -1.324332e+05 0.000000e+00
-1.185180e+05 -3.335740e+05 0.000000e+00
-1.333333e+05 -3.000000e+05 0.000000e+00
-1.000000e+05 -3.000000e+05 0.000000e+00
-1.166667e+05 -3.000000e+05 -2.516967e+04
3.767701e+05 8.545747e+04 -2.498937e+04
4.000000e+05 8.695652e+04 -5.000000e+04
3.664910e+05 7.093362e+04 -5.000000e+04
3.664147e+05 1.050627e+05 -5.000000e+04
4.000000e+05 8.695652e+04 0.000000e+00
3.668311e+05 6.925743e+04 0.000000e+00
4.000000e+05 6.956522e+04 -2.478801e+04
3.532003e+05 6.143720e+04 -2.460611e+04
3.529343e+05 9.380645e+04 -2.566405e+04
-6.874474e+04 -3.242435e+05 -2.504036e+04
[...]
CELL_DATA 20058
SCALARS total_strain double 6
LOOKUP_TABLE default
1.175202e-10 4.607683e-10 -1.227671e-10 -7.859100e-10 -1.280329e-11 -5.957021e-11
-3.053282e-10 5.666108e-10 -8.711765e-11 -5.901479e-10 -7.475198e-11 1.149891e-11
4.235625e-10 2.428804e-10 -1.783516e-10 -6.810329e-10 -5.721434e-11 -8.336876e-11
2.256906e-10 2.978116e-10 -1.341214e-10 -7.366454e-10 -4.438844e-11 4.266887e-11
-1.808358e-10 5.202558e-10 -1.204300e-10 -5.477601e-10 -5.097506e-11 -6.426748e-12
-1.313794e-11 4.172716e-10 -1.271196e-10 -7.349485e-10 -8.227841e-11 -2.543954e-11
1.900280e-10 3.336069e-10 -1.299579e-10 -6.058621e-10 -5.733314e-11 -2.091230e-11
-8.319549e-10 -4.224271e-09 9.078081e-10 2.675221e-09 3.517897e-10 3.003819e-11
-1.802688e-09 -3.921640e-09 1.188601e-09 3.484374e-09 8.826202e-10 -4.101053e-11
-9.044179e-10 -4.066112e-09 1.177438e-09 2.508737e-09 6.368889e-10 -3.739165e-11
-2.075170e-09 -2.131562e-09 1.138004e-09 2.497137e-09 5.604270e-10 -1.653243e-10
-1.668958e-09 -3.733176e-09 1.092465e-09 3.072865e-09 8.638161e-10 -2.737404e-10
-1.198859e-09 -3.712621e-09 1.184636e-09 2.741252e-09 4.206374e-10 5.693501e-11
2.370397e-09 -1.210688e-09 -3.283851e-10 -3.125478e-11 9.005935e-12 3.781608e-11
2.155471e-09 -1.249458e-09 -3.402061e-10 6.203044e-11 1.587980e-12 -2.646017e-11
2.167714e-09 -1.213264e-09 -3.136398e-10 8.863726e-11 3.875902e-11 -8.352874e-12
-3.341756e-10 -4.069022e-09 1.126251e-09 -1.110227e-09 -5.809064e-11 -2.340836e-10
-1.560371e-09 -1.106715e-09 1.646829e-10 3.699988e-10 -4.492284e-11 -5.901501e-12
-1.547992e-10 -4.135522e-09 1.159643e-09 -6.654403e-10 -1.197087e-11 5.170052e-11
1.523057e-10 -4.069003e-09 1.130514e-09 -1.100162e-09 -5.772827e-11 -1.544011e-10
4.967842e-10 -4.148123e-09 1.200998e-09 -5.898159e-10 -2.015765e-11 -1.263148e-10
3.466414e-10 -4.930284e-09 1.202338e-09 -9.325053e-10 -1.633749e-11 -1.246518e-10
-7.489618e-10 9.323777e-10 -4.401457e-11 -4.394054e-10 -4.519574e-11 -2.516898e-11
-7.232792e-11 5.330331e-09 -2.891661e-09 -1.739203e-09 1.058288e-09 -1.690190e-09
-5.581651e-10 7.756609e-10 -4.448220e-11 -3.754270e-10 -2.995049e-11 2.432321e-11
-9.747172e-10 9.513537e-10 -2.748424e-11 -3.317293e-10 -1.565126e-11 -4.334277e-11
-9.059899e-10 9.387842e-10 -1.914247e-11 -3.122866e-10 -2.566725e-11 -3.778844e-11
-7.258842e-10 9.515864e-10 -1.845102e-11 -2.485727e-10 -1.513545e-11 -1.842082e-11
-7.961827e-10 9.434800e-10 -2.111944e-11 -2.551312e-10 -1.561906e-11 3.301437e-11
4.072653e-11 4.932641e-10 -1.607692e-10 -4.990610e-10 -9.937251e-11 -2.920830e-12
2.024816e-10 2.636096e-10 -1.301355e-10 -3.283684e-10 -1.261313e-11 2.637357e-11
7.300383e-11 1.793055e-10 -1.660383e-10 -5.406618e-10 -2.928732e-11 2.616740e-11
1.422625e-09 -5.742328e-09 -7.149876e-10 1.544231e-09 -1.339895e-09 1.397033e-10
1.745247e-09 -5.530010e-09 -6.110108e-10 1.036058e-09 -4.542167e-10 1.526211e-10
1.454011e-09 -6.058730e-09 -4.719104e-10 1.467044e-09 -7.091787e-10 2.349756e-10
1.896641e-09 -9.698065e-10 -3.195026e-10 -3.523504e-10 -2.350808e-11 1.201433e-10
2.027605e-09 -9.266817e-10 -3.247584e-10 -2.999129e-10 2.440603e-12 3.672074e-11
1.799334e-09 -8.485359e-10 -2.932483e-10 -3.990936e-10 -3.963330e-11 3.387335e-11
1.405180e-09 -7.340684e-10 -2.906274e-10 -3.753828e-10 -2.263764e-11 -8.604450e-12
-1.214460e-09 7.217802e-10 1.949514e-10 9.668111e-11 1.840705e-11 8.978185e-11
1.914036e-09 -9.186344e-10 -3.089831e-10 -2.878519e-10 -3.314682e-11 1.199201e-10
-3.532072e-10 6.024850e-10 -6.444457e-09 2.492471e-09 -2.495322e-09 1.699897e-09
1.601309e-09 -7.091255e-10 -3.199541e-10 -3.920863e-10 -6.849434e-12 -8.569589e-12
-1.709133e-09 6.725180e-10 3.314753e-10 1.055538e-10 4.657064e-11 -3.872047e-11
-1.722159e-09 7.149987e-10 3.124256e-10 8.596146e-11 9.410250e-12 -3.645340e-11
-1.661809e-09 6.994751e-10 2.906306e-10 6.955192e-11 2.565792e-11 -4.245493e-12
-1.744594e-09 7.691305e-10 3.102381e-10 1.150653e-10 3.853717e-11 -4.687456e-11
-1.764931e-09 7.948990e-10 3.033036e-10 6.328177e-11 -1.303790e-12 -3.427217e-12
9.494055e-09 3.339156e-10 -1.965454e-10 4.512835e-09 1.046187e-09 8.616057e-10
2.319626e-09 -8.428182e-09 1.732109e-09 2.182332e-10 2.220277e-16 -3.866685e-11
1.334660e-08 -2.351150e-09 3.317986e-10 4.480345e-09 1.016504e-09 3.603982e-09
5.149172e-09 5.268483e-10 -2.066536e-09 4.513829e-09 -4.089637e-10 -1.553996e-10
9.230344e-09 4.803536e-10 -5.913984e-10 4.980494e-09 1.702306e-09 1.585009e-09
1.045132e-08 5.200657e-10 -4.999055e-10 6.701488e-09 1.791929e-09 2.951190e-09
1.126128e-09 3.513732e-09 -8.737921e-09 1.907577e-09 -1.050303e-09 5.994560e-10
1.476094e-08 -5.498565e-09 8.186398e-10 -1.383837e-09 -3.834866e-11 1.088923e-09
1.332929e-08 -6.687620e-09 2.458323e-09 7.986571e-10 6.593899e-11 2.117732e-10
1.419972e-08 -6.450533e-09 4.460263e-10 -6.504276e-10 6.671830e-10 5.692532e-10
1.423340e-08 -6.879246e-09 2.070108e-09 -9.121104e-10 -3.734401e-10 2.835571e-10
1.422790e-08 -7.018162e-09 2.077264e-09 4.446891e-10 3.835326e-10 2.884330e-10
1.458045e-08 -6.958107e-09 2.905423e-09 -6.153708e-10 2.221681e-10 8.364234e-10
1.131643e-08 -3.737971e-09 2.566121e-09 -4.613055e-09 -1.180180e-09 3.330026e-09
9.324364e-09 -3.224487e-09 2.888028e-09 -3.697630e-09 -7.941892e-10 2.096937e-09
9.185937e-09 -3.001537e-09 1.652472e-09 -3.863149e-09 -2.199550e-10 2.512844e-09
1.582295e-08 -6.586072e-09 2.912194e-09 -2.422518e-09 -5.004831e-11 6.010977e-09
1.531996e-08 -6.566229e-09 8.471525e-09 -2.430896e-09 -4.032521e-10 5.553005e-09
1.156667e-08 -4.458066e-09 2.773909e-09 -4.097543e-09 -1.184060e-09 1.823624e-09
1.149260e-08 -5.057378e-09 4.761989e-09 -4.351603e-09 -1.638638e-09 1.350817e-09
1.783695e-09 2.910201e-09 -1.145425e-09 -2.793196e-09 -1.142548e-10 -4.113582e-10
6.559495e-09 2.749738e-09 4.984280e-11 -3.634560e-09 -4.796308e-10 1.988507e-09
8.738535e-09 -2.471364e-10 -4.553935e-11 -3.303739e-09 -6.980117e-10 2.310010e-09
2.290863e-09 1.252617e-09 2.157390e-10 -2.270696e-09 -4.419921e-10 6.707535e-10
5.651523e-09 -5.630088e-10 -8.950893e-10 -2.309617e-09 -1.570951e-10 6.642050e-10
-5.933032e-10 8.179377e-10 -5.583867e-11 -2.505942e-10 -2.760886e-11 2.622547e-11
-4.887877e-10 7.848187e-10 -6.556189e-11 -3.287624e-10 -5.304031e-11 -1.531519e-11
-2.040910e-10 6.497576e-10 -1.093259e-10 -3.316227e-10 -4.451428e-11 -2.453371e-11
-4.612222e-10 6.167449e-10 -8.937651e-11 -2.248060e-10 -5.187317e-11 -2.196954e-11
-9.188725e-10 5.575984e-10 1.130318e-10 3.023448e-11 3.647416e-11 -1.920203e-11
-1.056686e-09 6.526868e-10 1.248039e-10 5.682565e-12 2.630562e-11 9.525047e-12
-9.899505e-10 3.754066e-09 -5.512210e-09 1.170208e-09 -5.668965e-10 3.911685e-10
-1.120112e-09 6.606680e-10 1.401530e-10 7.498291e-11 4.152834e-11 4.629819e-11
-1.058822e-09 6.696361e-10 1.190346e-10 1.136904e-10 3.304240e-11 -1.043499e-11
-9.880541e-10 5.961001e-10 1.211526e-10 1.993148e-10 5.104339e-11 3.753631e-11
-8.894130e-10 4.880683e-10 1.139158e-10 1.092504e-10 2.846101e-11 4.583667e-12
-4.037668e-09 5.051147e-09 1.273242e-09 1.829614e-09 -1.137257e-09 -1.912407e-10
-9.543655e-10 6.959624e-10 1.185501e-10 1.835279e-10 2.781886e-11 -1.320632e-11
-2.132319e-09 3.313749e-09 -3.918512e-09 1.772276e-10 -6.620646e-10 7.420200e-10
-2.127377e-09 -2.865779e-09 9.825825e-10 1.902834e-09 4.078214e-10 -1.173450e-10
-2.729888e-09 -2.190083e-09 1.117843e-09 1.504263e-09 2.139506e-10 -1.192300e-10
-2.724994e-09 -1.832547e-09 9.481111e-10 1.575685e-09 3.751401e-10 -1.346974e-10
-3.044198e-09 -2.281634e-09 1.126853e-09 2.081175e-09 6.075258e-10 -6.061835e-11
-2.070389e-09 -2.092131e-09 4.963132e-10 2.465252e-09 7.458090e-10 -1.369528e-10
-3.335296e-10 6.696581e-10 -1.057190e-10 -4.923955e-10 -4.905365e-11 -4.880651e-11
-4.824869e-10 7.566245e-10 -6.691214e-11 -3.206716e-10 -4.095813e-11 -2.260914e-11
-5.124434e-10 7.087888e-10 -7.111245e-11 -2.091193e-10 1.348617e-11 -6.658674e-12
-3.408925e-10 5.878822e-10 -9.184653e-11 -3.012576e-10 -6.227775e-11 -2.731831e-11
-3.086527e-10 5.974004e-10 -1.047784e-10 -5.013661e-10 -1.005018e-11 -6.787237e-11
-3.896714e-10 6.762182e-10 -7.644285e-11 -3.017324e-10 -6.392664e-13 -6.434675e-11
-4.070828e-09 3.540812e-10 4.455820e-10 -1.931700e-09 -1.618787e-09 -4.286653e-10
-4.211936e-09 1.837287e-09 -2.779301e-10 -1.280196e-09 -1.113019e-09 -3.163914e-10
-3.777666e-09 -5.595284e-10 2.621645e-10 -1.787032e-09 -1.625890e-09 -5.413316e-10
-3.843704e-09 3.516689e-10 -7.294676e-11 -1.909715e-09 -1.562644e-09 -3.598323e-10
-4.121206e-09 1.015246e-09 -5.521356e-10 -2.001632e-09 -1.591301e-09 -6.818601e-10
1.441037e-08 -4.778506e-09 -1.328639e-09 1.734430e-10 2.208220e-10 9.687069e-10
1.441589e-08 -4.836032e-09 8.461409e-11 1.341242e-10 1.915075e-10 7.335850e-10
4.836968e-09 1.658650e-09 -1.275656e-09 2.599019e-10 8.530108e-10 2.515270e-10
1.619304e-08 -4.822224e-09 -1.702070e-09 -7.611467e-11 -1.863985e-10 2.331662e-09
1.553624e-08 -3.094173e-09 -2.360218e-09 1.776648e-09 8.422210e-10 2.889401e-09
1.370656e-08 -2.987199e-09 -6.756693e-10 -4.072742e-11 1.287001e-10 8.541209e-10
1.259919e-08 -3.545600e-09 -9.872752e-10 1.191203e-09 -9.475529e-12 1.183992e-09
-3.190024e-09 -1.166614e-09 7.493199e-10 6.496470e-10 5.731561e-10 -2.485234e-10
-2.819883e-09 -1.157344e-09 1.716125e-10 1.226461e-09 4.433298e-10 -2.766380e-10
-2.770844e-09 -1.091813e-09 8.075995e-10 1.435035e-09 8.300909e-10 -5.182082e-11
-4.782548e-09 5.154334e-09 -2.209948e-10 1.700537e-09 2.676613e-10 6.812346e-10
-2.167971e-09 -2.846098e-09 8.492935e-10 1.604996e-09 5.155043e-10 -1.934019e-10
-2.725142e-09 -2.140936e-09 9.738650e-10 7.739716e-10 4.960536e-10 6.220258e-11
-1.153043e-09 6.579377e-10 1.472720e-10 1.550591e-10 2.833156e-11 4.584977e-11
-1.214849e-09 7.260859e-10 1.501035e-10 1.231784e-10 1.762790e-11 -7.601697e-13
-8.601440e-10 4.983143e-10 1.164877e-10 8.443601e-11 4.490230e-11 -6.841949e-11
-1.350954e-09 7.461978e-10 1.524221e-10 7.885781e-11 3.589862e-11 -3.803075e-11
-1.071908e-09 6.473213e-10 1.533014e-10 1.729048e-10 2.109513e-11 -5.526646e-11
-1.151802e-09 6.767378e-10 1.689635e-10 2.064857e-10 4.264632e-11 -2.682232e-11
-1.945398e-09 5.998957e-09 -4.093646e-09 -5.711014e-09 9.797174e-10 1.359346e-09
-1.503505e-09 6.739494e-09 1.412577e-09 -6.328866e-09 8.535988e-10 7.123497e-10
-4.461369e-10 4.770994e-09 1.740069e-09 -6.330941e-09 1.016770e-09 1.978851e-10
-3.328289e-10 7.228627e-10 -5.541168e-11 -1.085028e-09 6.066259e-12 3.358314e-11
9.204064e-10 3.549937e-09 1.381832e-09 -7.072709e-09 1.022394e-09 1.782952e-11
-1.157218e-09 4.803044e-09 1.067181e-09 -6.598457e-09 9.420664e-10 7.444130e-10
1.933529e-09 -9.733534e-10 -3.179006e-10 -2.040916e-10 -3.536904e-11 3.447465e-12
2.060521e-09 -1.067908e-09 -3.146883e-10 -2.004836e-10 -1.201184e-11 3.634848e-11
1.727209e-09 -8.916680e-10 -2.976636e-10 -3.785952e-10 -1.728906e-11 -4.404133e-11
2.116943e-09 -1.103047e-09 -3.312470e-10 -2.925722e-10 -1.233197e-11 -2.914488e-12
2.048235e-09 -8.851826e-10 -3.220245e-10 -4.163110e-10 -5.725687e-11 2.020628e-11
2.003235e-09 -1.090564e-09 -3.059754e-10 -2.538240e-10 -4.739936e-11 1.914266e-11
-2.238214e-09 1.283408e-09 -3.475691e-10 -6.390279e-10 -7.261613e-11 -9.415135e-11
-2.154478e-09 9.185754e-10 3.040723e-11 -5.148266e-10 -3.616485e-11 -7.867551e-11
-2.189193e-09 1.188691e-09 -1.309699e-10 -7.088527e-10 -1.969367e-10 8.084866e-12
-2.170824e-09 8.990462e-10 9.821832e-11 -5.366343e-10 -2.924505e-11 -4.723033e-11
2.209669e-09 -1.169976e-09 -3.326415e-10 4.586752e-11 8.551826e-12 3.773426e-12
2.181359e-09 -1.182082e-09 -3.231286e-10 8.995930e-11 7.145770e-12 4.466982e-11
2.040581e-09 -1.143491e-09 -3.231985e-10 2.106104e-10 -1.771652e-12 -1.642747e-11
2.321814e-09 -1.258574e-09 -3.460228e-10 2.498220e-10 1.648570e-12 -4.044193e-11
2.347244e-09 -1.292999e-09 -3.299432e-10 1.132278e-10 3.940441e-11 2.916867e-11
2.239703e-09 -1.200705e-09 -3.362333e-10 4.279797e-11 -1.141673e-11 3.384648e-11
2.181604e-09 -1.193442e-09 -3.291243e-10 -1.245293e-11 9.095766e-12 2.546452e-11
2.234902e-09 -1.243283e-09 -3.351723e-10 3.875084e-11 2.487088e-11 1.754151e-14
2.477929e-09 -1.244117e-09 -3.235083e-10 2.741702e-11 2.096878e-11 6.474954e-11
-8.648239e-10 6.896363e-09 -8.579777e-09 -9.733577e-11 -9.805799e-10 6.515871e-10
-8.778240e-10 5.518892e-10 1.227707e-10 1.278175e-10 -5.597633e-12 1.518841e-11
-9.424239e-10 5.568470e-10 1.304468e-10 3.064309e-10 3.815792e-11 -4.905654e-11
-9.027463e-10 5.131788e-10 1.013616e-10 2.968830e-10 1.654232e-13 -7.024070e-11
-9.956063e-10 5.849730e-10 1.282801e-10 1.765570e-10 6.070699e-13 -6.029643e-11
-1.124175e-09 6.316672e-10 1.231997e-10 2.377201e-10 2.529421e-11 -1.873346e-11
-1.065972e-09 6.390812e-10 1.421412e-10 2.090232e-10 3.221808e-11 -2.097972e-11
1.164893e-09 -1.914892e-09 -5.883492e-09 -5.150832e-09 1.102965e-09 3.035544e-10
-1.904853e-09 1.709037e-09 -2.938155e-09 -4.521061e-09 1.180050e-09 8.355659e-10
-3.906794e-09 2.614231e-09 -1.523982e-09 -1.936855e-09 5.809686e-11 9.030426e-11
-1.848578e-09 -1.935887e-10 -2.959717e-09 -4.530643e-09 9.041514e-10 8.664074e-10
2.414161e-10 -1.501840e-09 -4.147012e-09 -5.028218e-09 2.229004e-10 -3.224520e-10
-1.101938e-09 -5.130381e-10 -3.239026e-09 -4.722923e-09 1.050623e-09 8.848491e-10
2.921498e-09 -6.916305e-09 -2.477916e-09 -2.578306e-09 -1.539364e-09 -2.068752e-10
1.947419e-09 -6.901671e-09 -1.410150e-09 -1.722257e-09 -1.265864e-09 -2.735163e-10
1.987017e-09 -6.002928e-09 -2.387823e-09 -1.999912e-09 -1.375032e-09 -2.586853e-11
2.285667e-09 -5.390025e-09 -3.874407e-09 -3.077377e-09 -1.040060e-09 -4.342753e-10
1.991246e-09 -5.984982e-09 -1.213051e-09 -1.991003e-09 -6.214373e-10 2.714202e-10
1.251848e-09 -5.684410e-09 -1.954758e-09 -2.066145e-09 -7.478051e-10 -4.732787e-10
1.301839e-10 3.734053e-10 -1.504050e-10 -6.117244e-10 -8.859402e-11 -4.690848e-11
1.140705e-10 3.235137e-10 -1.256779e-10 -3.759641e-10 1.400657e-12 -2.364375e-11
3.873897e-10 2.661089e-10 -1.596927e-10 -4.878380e-10 -1.489031e-11 5.570489e-12
4.025453e-10 1.432356e-10 -1.854139e-10 -5.681767e-10 -7.207124e-11 -3.957498e-11
-3.527764e-09 -3.585789e-10 -1.306579e-09 -1.871066e-09 -1.076889e-09 -5.673201e-10
-3.692582e-09 9.222285e-10 -1.712101e-09 -1.821408e-09 -1.081064e-09 -2.514337e-10
-3.740401e-09 3.394103e-10 -7.798269e-10 -1.285256e-09 -5.111251e-10 -2.890477e-10
-2.970227e-09 -1.643201e-10 -1.273901e-09 -2.125538e-09 -4.209522e-12 9.993961e-11
-6.358594e-10 8.977459e-10 -6.318368e-11 -9.553225e-11 -2.195355e-11 -1.439454e-11
-5.727117e-10 7.714540e-10 -6.586198e-11 -2.802174e-10 -5.507816e-11 -6.932954e-12
-6.064860e-10 8.989485e-10 -7.150369e-11 -1.718403e-10 -2.312434e-11 -3.147987e-11
-2.069049e-09 3.758154e-09 -7.194511e-09 -3.864473e-09 -5.481531e-10 -3.614293e-10
-7.899867e-10 9.245946e-10 -6.329071e-11 -1.976619e-10 -1.892120e-11 -4.155809e-11
8.396932e-10 -5.181223e-09 1.244965e-09 -1.339584e-09 1.878702e-10 -8.411374e-11
1.510260e-09 -6.860176e-09 1.242519e-09 -1.256857e-09 -3.644085e-11 -9.305847e-12
9.450352e-10 -5.462670e-09 9.254757e-10 -1.532742e-09 3.721309e-10 -6.381570e-12
1.502073e-09 -5.768779e-09 9.021730e-10 -1.548432e-09 5.948952e-11 -4.386928e-11
1.493851e-09 -6.249594e-09 1.087873e-09 -1.427633e-09 2.358080e-10 -1.373579e-11
1.041589e-09 -5.017577e-10 -1.977360e-10 4.091034e-10 2.321254e-11 1.245901e-10
-2.721220e-09 -2.762511e-09 6.154770e-10 -1.520523e-09 -7.764155e-10 -2.992218e-10
-1.646775e-09 -2.275877e-09 1.032735e-09 -2.163522e-09 -2.009906e-10 -3.098557e-10
-1.676915e-09 -3.020640e-09 5.098495e-10 -1.322534e-09 -4.238053e-10 -2.912700e-10
-2.513982e-09 -1.868458e-09 1.071209e-09 -1.068536e-09 -6.962816e-10 5.389333e-11
-2.589429e-09 -2.854931e-09 9.901273e-10 -1.602447e-09 -9.004811e-10 -7.658940e-11
-1.637546e-09 -4.638672e-09 -1.303944e-10 -1.901868e-09 -1.580472e-09 -4.908062e-10
-8.759908e-10 4.794884e-10 7.578804e-11 1.144167e-10 5.274003e-11 2.567502e-11
-1.751405e-09 1.547726e-09 -3.442575e-10 -1.591258e-09 -3.305134e-11 -1.566420e-10
-1.534635e-09 1.803016e-09 -4.552891e-10 -2.071760e-09 -3.014036e-10 1.866862e-10
-2.167249e-09 1.503996e-09 -4.814322e-10 -1.131039e-09 -1.731624e-10 8.747492e-11
-1.679529e-09 1.674740e-09 -4.995400e-10 -1.460839e-09 -7.546963e-11 -9.766965e-11
-1.798004e-09 2.070878e-09 -5.749792e-10 -1.917649e-09 -2.389693e-10 3.135725e-10
-2.942917e-08 -1.451844e-08 6.895387e-08 -1.109233e-09 -1.471948e-09 -4.512974e-10
-2.272817e-08 -7.606466e-09 5.899089e-08 -6.366282e-09 -8.163500e-09 1.918089e-09
-2.885234e-08 -1.547937e-08 6.794866e-08 1.350917e-09 -1.867784e-10 -1.526566e-09
-2.684789e-08 -6.982636e-09 8.745377e-08 3.878630e-09 -8.862847e-09 -6.299192e-09
-2.678260e-08 -1.282259e-08 7.143596e-08 -1.262396e-09 -3.364728e-09 1.202798e-09
-4.611525e-09 3.373229e-09 -7.665908e-10 2.060304e-09 1.552902e-09 -7.851447e-10
-4.652063e-09 3.334595e-09 -7.481953e-10 2.020354e-09 1.532466e-09 -8.110456e-10
-5.214519e-09 3.812879e-09 -1.227314e-09 4.370220e-09 2.018608e-09 -1.698321e-09
4.930012e-11 1.152411e-12 -7.843504e-12 4.760266e-10 7.592527e-11 -3.196776e-12
-5.166680e-09 5.511241e-09 -2.559352e-09 3.472528e-09 2.227167e-09 -2.569636e-09
-4.300602e-09 3.842851e-09 -6.335159e-10 1.363550e-09 1.272644e-09 -3.802927e-10
-3.784658e-09 5.429302e-09 -1.909608e-09 6.705818e-10 1.496066e-09 -1.165720e-09
1.413621e-09 -6.117246e-10 -2.061711e-10 8.786619e-10 -1.656387e-11 1.479626e-11
1.532439e-09 -7.773526e-10 -2.227809e-10 8.222045e-10 -3.721312e-11 -6.213119e-11
1.338079e-09 -6.128995e-10 -2.002611e-10 6.335253e-10 -2.837397e-11 -7.434720e-12
1.074071e-09 -4.998911e-10 -1.603920e-10 7.539734e-10 -1.266411e-11 4.734879e-12
4.171905e-10 -5.181493e-09 -6.019585e-10 1.023813e-09 -3.980438e-10 1.520638e-10
-5.649162e-10 -2.974781e-09 -6.939554e-10 1.298933e-09 -2.136584e-10 2.087217e-10
3.477290e-10 -3.709592e-09 -4.029665e-10 9.547014e-10 -2.858600e-10 -5.602574e-12
-4.238304e-09 7.534767e-09 -3.710681e-09 -3.337069e-09 1.682570e-09 1.672250e-09
-5.440683e-10 -2.772876e-09 -1.887297e-09 1.860761e-09 -8.051793e-10 2.922713e-10
-5.271986e-10 -2.705912e-09 -1.170144e-09 1.794313e-09 -1.066430e-09 6.732443e-10
3.980563e-10 -3.992919e-09 -9.428667e-10 1.123216e-09 1.114469e-10 -1.909645e-10
9.589232e-10 -4.476706e-09 -7.687807e-10 1.625100e-09 -8.272015e-10 6.183582e-10
4.083203e-10 -5.650834e-09 -7.238654e-11 1.784902e-09 -1.094921e-09 6.360284e-10
6.083773e-10 -4.297645e-09 -9.903642e-10 1.854245e-09 -1.104656e-09 2.101239e-10
-1.616980e-09 6.687415e-10 3.030407e-10 1.517828e-10 1.336264e-11 1.024195e-12
-1.622207e-09 6.918093e-10 2.909246e-10 1.910067e-10 2.418843e-11 -4.772135e-11
-1.624357e-09 6.349787e-10 2.995044e-10 7.730183e-11 1.658820e-11 -1.642569e-11
1.074662e-09 -4.998703e-10 -1.774421e-10 7.541050e-10 1.963156e-11 1.010072e-10
8.798056e-10 -3.977698e-10 -1.545182e-10 5.785287e-10 2.998846e-11 -1.045388e-10
9.216272e-10 -3.749365e-10 -1.358180e-10 8.519253e-10 5.294765e-11 1.037497e-10
1.809172e-09 -8.154983e-10 -3.176153e-10 -4.726335e-10 -1.731482e-11 1.360267e-11
1.790530e-09 -8.737632e-10 -3.036544e-10 -5.088967e-10 -6.371573e-11 -1.135758e-12
2.143470e-09 -9.740244e-10 -3.273954e-10 -5.556536e-10 -3.399647e-11 4.206077e-11
1.820666e-09 -7.761278e-10 -3.326401e-10 -5.009722e-10 3.117084e-11 4.499567e-12
1.958445e-09 -9.367369e-10 -3.192970e-10 -2.323441e-10 8.342216e-12 -6.154288e-11
2.206935e-09 -1.075574e-09 -3.424498e-10 -2.691112e-10 -7.253143e-12 4.151346e-11
2.145121e-09 -1.134767e-09 -3.355476e-10 -3.413418e-10 2.227551e-12 -8.162138e-12
6.411556e-09 2.699363e-11 4.396662e-09 7.436034e-09 3.383756e-10 3.033580e-09
7.164266e-09 -4.720749e-09 1.940712e-08 8.560999e-09 2.252146e-09 2.682555e-09
9.127273e-09 -4.725381e-09 6.922898e-09 6.842682e-09 1.732927e-09 2.062964e-09
7.416673e-09 -2.142106e-09 9.019244e-09 7.167880e-09 1.296726e-09 3.744581e-09
2.426040e-09 -1.049988e-09 -4.061418e-10 -6.529113e-10 2.018063e-11 6.310241e-11
1.826763e-09 -8.714983e-10 -3.103731e-10 -8.034105e-10 1.244971e-11 7.942003e-11
2.273400e-09 -1.090448e-09 -3.804823e-10 -7.966762e-10 1.759815e-11 -4.225265e-11
1.985294e-09 -8.838938e-10 -3.224421e-10 -6.686965e-10 2.476974e-11 -3.743161e-11
-2.765715e-09 -8.703661e-10 -1.337376e-09 -2.316312e-09 -5.973491e-10 -1.841528e-10