# vtk DataFile Version 2.0
Simplicial Mesh Example
ASCII
DATASET UNSTRUCTURED_GRID
POINTS 955 double
1.739130e+04 -4.000000e+05 0.000000e+00
3.431474e+04 -3.668361e+05 0.000000e+00
5.217391e+04 -4.000000e+05 0.000000e+00
-3.668348e+05 1.033122e+05 0.000000e+00
3.693733e+05 -3.529960e+05 0.000000e+00
-4.000000e+05 8.695652e+04 0.000000e+00
-2.962358e+05 -3.323448e+05 0.000000e+00
-3.357456e+05 -3.422369e+05 0.000000e+00
-2.772919e+05 -3.669732e+05 0.000000e+00
3.335574e+05 -1.858748e+05 0.000000e+00
3.000000e+05 -1.659466e+05 0.000000e+00
-1.716829e+05 -3.668361e+05 0.000000e+00
-1.913043e+05 -4.000000e+05 0.000000e+00
2.061857e+05 3.668333e+05 0.000000e+00
1.565217e+05 4.000000e+05 0.000000e+00
1.716839e+05 3.668365e+05 0.000000e+00
1.913043e+05 4.000000e+05 0.000000e+00
-8.695652e+04 4.000000e+05 0.000000e+00
-6.863978e+04 3.668364e+05 0.000000e+00
8.695652e+04 -4.000000e+05 0.000000e+00
6.864043e+04 -3.668360e+05 0.000000e+00
-1.217391e+05 -4.000000e+05 0.000000e+00
-1.373218e+05 -3.668365e+05 0.000000e+00
-1.565217e+05 -4.000000e+05 0.000000e+00
-3.668349e+05 1.375908e+05 0.000000e+00
-4.000000e+05 1.565217e+05 0.000000e+00
3.668265e+05 -1.714683e+05 0.000000e+00
4.000000e+05 -1.913043e+05 0.000000e+00
4.000000e+05 -1.565217e+05 0.000000e+00
4.000000e+05 1.565217e+05 0.000000e+00
3.668383e+05 1.722952e+05 0.000000e+00
4.000000e+05 -8.695652e+04 0.000000e+00
3.668372e+05 -1.026508e+05 0.000000e+00
4.000000e+05 -5.217391e+04 0.000000e+00
3.668380e+05 -6.826645e+04 0.000000e+00
-1.666667e+05 -3.000000e+05 0.000000e+00
3.334882e+05 -2.202831e+05 0.000000e+00
3.000000e+05 -1.994599e+05 0.000000e+00
-1.862587e+05 -3.335758e+05 0.000000e+00
-5.217391e+04 4.000000e+05 0.000000e+00
-1.739130e+04 4.000000e+05 0.000000e+00
-3.431405e+04 3.668365e+05 0.000000e+00
-1.716148e+05 3.668263e+05 0.000000e+00
-1.913043e+05 4.000000e+05 0.000000e+00
-2.059314e+05 3.667832e+05 0.000000e+00
3.316724e+05 -2.967750e+05 0.000000e+00
3.666108e+05 -2.775848e+05 0.000000e+00
3.397681e+05 -3.369212e+05 0.000000e+00
-3.335738e+05 1.866432e+05 0.000000e+00
-3.000000e+05 1.673499e+05 0.000000e+00
-3.000000e+05 2.005124e+05 0.000000e+00
-3.335722e+05 1.528704e+05 0.000000e+00
2.962288e+05 3.323792e+05 0.000000e+00
2.772894e+05 3.669850e+05 0.000000e+00
3.357389e+05 3.423035e+05 0.000000e+00
-3.422611e+05 3.357632e+05 0.000000e+00
-3.323575e+05 2.962961e+05 0.000000e+00
-3.669772e+05 2.773495e+05 0.000000e+00
-3.000000e+05 1.341874e+05 0.000000e+00
-3.335717e+05 1.191216e+05 0.000000e+00
3.668370e+05 3.487991e+04 0.000000e+00
3.668382e+05 4.985393e+02 0.000000e+00
4.000000e+05 1.739130e+04 0.000000e+00
3.335703e+05 -1.518628e+05 0.000000e+00
3.335746e+05 -1.178848e+05 0.000000e+00
3.000000e+05 -1.324332e+05 0.000000e+00
-1.185180e+05 -3.335740e+05 0.000000e+00
-1.333333e+05 -3.000000e+05 0.000000e+00
-1.000000e+05 -3.000000e+05 0.000000e+00
4.000000e+05 8.695652e+04 0.000000e+00
3.668311e+05 6.925743e+04 0.000000e+00
-6.666667e+04 -3.000000e+05 0.000000e+00
-8.466381e+04 -3.335739e+05 0.000000e+00
-5.081027e+04 -3.335738e+05 0.000000e+00
-1.092350e+01 -3.668362e+05 0.000000e+00
-1.523098e+05 3.335679e+05 0.000000e+00
-1.666667e+05 3.000000e+05 0.000000e+00
-1.861609e+05 3.335431e+05 0.000000e+00
-1.184568e+05 3.335728e+05 0.000000e+00
-1.333333e+05 3.000000e+05 0.000000e+00
-3.668344e+05 6.903915e+04 0.000000e+00
-4.000000e+05 5.217391e+04 0.000000e+00
-3.668332e+05 3.476756e+04 0.000000e+00
3.667880e+05 2.064991e+05 0.000000e+00
4.000000e+05 1.913043e+05 0.000000e+00
4.000000e+05 2.260870e+05 0.000000e+00
3.668383e+05 -3.388371e+04 0.000000e+00
1.695789e+04 3.335742e+05 0.000000e+00
3.333333e+04 3.000000e+05 0.000000e+00
5.081153e+04 3.335742e+05 0.000000e+00
-6.866241e+04 -3.668363e+05 0.000000e+00
-5.217391e+04 -4.000000e+05 0.000000e+00
-3.433659e+04 -3.668363e+05 0.000000e+00
8.466523e+04 3.335742e+05 0.000000e+00
6.666667e+04 3.000000e+05 0.000000e+00
-3.650927e+05 -2.750990e+05 0.000000e+00
1.373228e+05 3.668367e+05 0.000000e+00
-1.029893e+05 -3.668364e+05 0.000000e+00
-2.061853e+05 -3.668319e+05 0.000000e+00
3.679246e+05 -3.150758e+05 0.000000e+00
4.000000e+05 -2.956522e+05 0.000000e+00
-3.668488e+05 -6.807684e+04 0.000000e+00
-3.668495e+05 -1.024032e+05 0.000000e+00
-3.777286e+05 3.768122e+05 0.000000e+00
-3.731516e+05 3.486385e+05 0.000000e+00
8.460407e+04 -3.335732e+05 0.000000e+00
1.000000e+05 -3.000000e+05 0.000000e+00
1.184575e+05 -3.335722e+05 0.000000e+00
-4.000000e+05 -2.608696e+05 0.000000e+00
-3.668282e+05 4.980022e+02 0.000000e+00
3.000000e+05 1.620150e+03 0.000000e+00
1.523100e+05 -3.335678e+05 0.000000e+00
1.666667e+05 -3.000000e+05 0.000000e+00
1.861576e+05 -3.335456e+05 0.000000e+00
-2.411432e+05 -3.668207e+05 0.000000e+00
-2.260870e+05 -4.000000e+05 0.000000e+00
-3.328022e+05 -2.535374e+05 0.000000e+00
2.260870e+05 4.000000e+05 0.000000e+00
3.335746e+05 5.195984e+04 0.000000e+00
3.000000e+05 6.864685e+04 0.000000e+00
3.000000e+05 3.513350e+04 0.000000e+00
3.335698e+05 8.592243e+04 0.000000e+00
4.000000e+05 -1.217391e+05 0.000000e+00
3.335767e+05 -1.597580e+04 0.000000e+00
3.000000e+05 -3.189320e+04 0.000000e+00
4.000000e+05 -1.739130e+04 0.000000e+00
-3.335594e+05 2.207671e+05 0.000000e+00
-3.246449e+05 -3.150201e+05 0.000000e+00
-3.608008e+05 -3.135540e+05 0.000000e+00
-3.306775e+05 -2.872043e+05 0.000000e+00
-2.333333e+05 -3.000000e+05 0.000000e+00
-2.558329e+05 -3.333551e+05 0.000000e+00
-2.204932e+05 -3.335596e+05 0.000000e+00
-2.000000e+05 -3.000000e+05 0.000000e+00
1.333333e+05 -3.000000e+05 0.000000e+00
-3.000000e+05 -2.326501e+05 0.000000e+00
-3.334238e+05 -2.194600e+05 0.000000e+00
3.667086e+05 -2.411486e+05 0.000000e+00
3.331504e+05 -2.559007e+05 0.000000e+00
2.000000e+05 3.000000e+05 0.000000e+00
1.862602e+05 3.335762e+05 0.000000e+00
2.204925e+05 3.335627e+05 0.000000e+00
2.000000e+05 -3.000000e+05 0.000000e+00
3.000000e+05 2.018902e+05 0.000000e+00
3.334338e+05 2.210121e+05 0.000000e+00
-4.000000e+05 -2.260870e+05 0.000000e+00
-3.664180e+05 -2.401224e+05 0.000000e+00
-3.667926e+05 -2.056104e+05 0.000000e+00
-3.668215e+05 2.412511e+05 0.000000e+00
-4.000000e+05 2.260870e+05 0.000000e+00
3.000000e+05 3.000000e+05 0.000000e+00
3.306623e+05 2.876205e+05 0.000000e+00
-5.074947e+04 3.335740e+05 0.000000e+00
-6.666667e+04 3.000000e+05 0.000000e+00
-8.460317e+04 3.335738e+05 0.000000e+00
-4.000000e+05 -1.565217e+05 0.000000e+00
-3.668386e+05 -1.711937e+05 0.000000e+00
-3.668436e+05 -1.367793e+05 0.000000e+00
3.336147e+05 1.538073e+05 0.000000e+00
2.260870e+05 -4.000000e+05 0.000000e+00
2.059253e+05 -3.667880e+05 0.000000e+00
2.402710e+05 -3.664674e+05 0.000000e+00
4.000000e+05 1.217391e+05 0.000000e+00
3.668342e+05 1.036336e+05 0.000000e+00
1.029661e+05 -3.668356e+05 0.000000e+00
1.217391e+05 -4.000000e+05 0.000000e+00
1.372913e+05 -3.668342e+05 0.000000e+00
4.000000e+05 2.956522e+05 0.000000e+00
3.650890e+05 2.754572e+05 0.000000e+00
3.607920e+05 3.136982e+05 0.000000e+00
-3.691108e+05 3.139776e+05 0.000000e+00
-4.000000e+05 2.956522e+05 0.000000e+00
-4.000000e+05 1.217391e+05 0.000000e+00
3.668347e+05 -1.370424e+05 0.000000e+00
3.667968e+05 -2.060541e+05 0.000000e+00
1.565217e+05 -4.000000e+05 0.000000e+00
-8.695652e+04 -4.000000e+05 0.000000e+00
3.000000e+05 1.021602e+05 0.000000e+00
3.335748e+05 1.198782e+05 0.000000e+00
3.433740e+04 3.668366e+05 0.000000e+00
1.739130e+04 4.000000e+05 0.000000e+00
1.166851e+01 3.668366e+05 0.000000e+00
1.185195e+05 3.335744e+05 0.000000e+00
1.333333e+05 3.000000e+05 0.000000e+00
1.523779e+05 3.335748e+05 0.000000e+00
1.666667e+05 3.000000e+05 0.000000e+00
4.000000e+05 -2.608696e+05 0.000000e+00
-3.333333e+04 -3.000000e+05 0.000000e+00
-1.695675e+04 -3.335737e+05 0.000000e+00
-3.702024e+05 -3.502584e+05 0.000000e+00
-4.000000e+05 -3.304348e+05 0.000000e+00
5.075044e+04 -3.335735e+05 0.000000e+00
3.335765e+05 -4.994471e+04 0.000000e+00
3.000000e+05 -6.540655e+04 0.000000e+00
3.335760e+05 -8.391401e+04 0.000000e+00
1.029903e+05 3.668367e+05 0.000000e+00
8.695652e+04 4.000000e+05 0.000000e+00
6.866331e+04 3.668366e+05 0.000000e+00
-3.335741e+05 -1.854110e+05 0.000000e+00
-3.335907e+05 -1.513473e+05 0.000000e+00
1.217391e+05 4.000000e+05 0.000000e+00
-1.029655e+05 3.668361e+05 0.000000e+00
-1.217391e+05 4.000000e+05 0.000000e+00
-1.372909e+05 3.668345e+05 0.000000e+00
-3.333582e+05 2.559979e+05 0.000000e+00
-1.565217e+05 4.000000e+05 0.000000e+00
-3.333333e+04 3.000000e+05 0.000000e+00
-1.689577e+04 3.335741e+05 0.000000e+00
4.000000e+05 -2.260870e+05 0.000000e+00
4.000000e+05 5.217391e+04 0.000000e+00
-3.000000e+05 -3.000000e+05 0.000000e+00
-2.666667e+05 -3.000000e+05 0.000000e+00
2.749236e+05 -3.652724e+05 0.000000e+00
2.956522e+05 -4.000000e+05 0.000000e+00
-2.260870e+05 4.000000e+05 0.000000e+00
3.246361e+05 3.151522e+05 0.000000e+00
-2.956522e+05 -4.000000e+05 0.000000e+00
-3.139562e+05 -3.691022e+05 0.000000e+00
-3.335708e+05 5.163284e+04 0.000000e+00
-3.000000e+05 6.786232e+04 0.000000e+00
-3.335713e+05 8.537688e+04 0.000000e+00
-3.502741e+05 3.702051e+05 0.000000e+00
-3.000000e+05 -1.653002e+05 0.000000e+00
3.139513e+05 3.691251e+05 0.000000e+00
2.956522e+05 4.000000e+05 0.000000e+00
3.668475e+05 1.379968e+05 0.000000e+00
1.716142e+05 -3.668268e+05 0.000000e+00
4.000000e+05 -3.652174e+05 0.000000e+00
4.000000e+05 -4.000000e+05 0.000000e+00
1.913043e+05 -4.000000e+05 0.000000e+00
-2.200076e+05 3.334178e+05 0.000000e+00
-2.000000e+05 3.000000e+05 0.000000e+00
3.486284e+05 3.731663e+05 0.000000e+00
3.701971e+05 3.502998e+05 0.000000e+00
-3.668327e+05 -3.377970e+04 0.000000e+00
3.000000e+05 1.356736e+05 0.000000e+00
-1.523763e+05 -3.335744e+05 0.000000e+00
-2.873505e+05 3.306746e+05 0.000000e+00
-3.000000e+05 3.000000e+05 0.000000e+00
3.000000e+05 -9.891990e+04 0.000000e+00
-4.000000e+05 -2.956522e+05 0.000000e+00
-2.956522e+05 4.000000e+05 0.000000e+00
-2.752247e+05 3.650898e+05 0.000000e+00
-3.136055e+05 3.608027e+05 0.000000e+00
-3.000000e+05 -2.663251e+05 0.000000e+00
-3.000000e+05 1.010248e+05 0.000000e+00
-3.000000e+05 2.336749e+05 0.000000e+00
[...]
POINT_DATA 955
VECTORS displacement double
5.079261e-04 0.000000e+00 5.886860e-05
4.930212e-04 -7.439240e-05 4.966996e-05
4.917074e-04 0.000000e+00 6.416517e-05
-8.258113e-05 5.653624e-04 -1.658586e-04
2.764103e-05 5.269612e-05 -3.834640e-06
0.000000e+00 4.531516e-04 -1.536596e-04
-2.810617e-04 -2.278249e-04 -4.582470e-05
-2.007955e-04 -7.519543e-05 2.306087e-05
-2.718945e-04 -1.546430e-04 1.451746e-05
-6.407369e-05 1.417230e-04 -2.928810e-05
-1.233174e-04 1.447783e-04 -3.440927e-05
-3.522085e-05 -3.458162e-04 -6.259188e-05
-1.041479e-04 0.000000e+00 -8.769935e-06
3.467991e-04 -1.288088e-05 5.917619e-05
4.387330e-04 0.000000e+00 7.916603e-05
4.072212e-04 -5.095524e-07 7.201474e-05
3.793045e-04 0.000000e+00 6.557064e-05
4.133361e-04 0.000000e+00 1.939333e-04
4.512450e-04 2.091383e-04 1.838514e-04
4.515322e-04 0.000000e+00 6.135047e-05
4.624396e-04 -2.921404e-05 5.365852e-05
1.849366e-04 0.000000e+00 -9.706135e-06
1.152312e-04 -3.502026e-04 -5.709323e-05
3.880718e-05 0.000000e+00 -1.444770e-05
-1.072876e-04 6.040888e-04 -1.111186e-04
0.000000e+00 5.555549e-04 -5.591490e-05
-3.718415e-05 1.296493e-04 -3.086280e-05
0.000000e+00 1.341349e-04 -2.738955e-05
0.000000e+00 1.201410e-04 -3.297918e-05
0.000000e+00 -1.624168e-04 -6.214333e-06
1.675244e-06 -1.616052e-04 -2.682605e-06
0.000000e+00 5.866350e-05 -3.969274e-05
-6.343411e-05 7.754473e-05 -3.940394e-05
0.000000e+00 1.685335e-05 -4.066652e-05
-7.032606e-05 3.802395e-05 -4.112301e-05
-6.428011e-05 -1.267102e-03 -4.727651e-04
-3.140982e-05 1.443657e-04 -2.255707e-05
-7.570511e-05 1.543438e-04 -2.700107e-05
-1.193596e-04 -7.044838e-04 -2.005219e-04
4.838779e-04 0.000000e+00 1.821122e-04
5.334635e-04 0.000000e+00 1.682177e-04
5.102554e-04 1.753285e-04 1.703001e-04
1.854490e-04 2.528001e-04 2.080979e-04
1.414144e-04 0.000000e+00 2.171687e-04
9.832377e-05 2.433894e-04 2.119921e-04
3.506649e-05 1.093962e-04 -8.248605e-06
8.736903e-06 1.187591e-04 -1.286589e-05
4.965011e-05 7.120994e-05 -3.851164e-06
-1.917996e-04 7.750250e-04 -4.039906e-05
-2.895295e-04 1.095874e-03 -1.814173e-04
-2.362854e-04 9.676777e-04 -5.373287e-05
-2.144833e-04 8.258918e-04 -1.386639e-04
1.717480e-04 -5.981741e-05 3.423778e-05
2.176508e-04 -2.734418e-05 4.056935e-05
1.074541e-04 -5.567232e-05 3.012855e-05
-4.552248e-05 2.907289e-04 2.078633e-04
-7.530280e-05 4.627616e-04 1.751193e-04
-5.341870e-05 4.666528e-04 1.590531e-04
-3.271118e-04 1.235666e-03 -3.207902e-04
-2.056621e-04 8.498952e-04 -2.229385e-04
-5.958032e-05 -8.888213e-05 -3.365317e-05
-6.853218e-05 -4.904285e-05 -3.829225e-05
0.000000e+00 -6.973357e-05 -3.569949e-05
-9.406279e-05 1.258621e-04 -3.522778e-05
-1.198747e-04 9.835960e-05 -3.989414e-05
-1.685475e-04 1.216489e-04 -4.027114e-05
1.832888e-04 -7.189699e-04 -1.807060e-04
1.010280e-04 -1.260591e-03 -4.566275e-04
2.545861e-04 -1.132880e-03 -3.889157e-04
0.000000e+00 -1.356060e-04 -2.323081e-05
-4.742580e-05 -1.217082e-04 -2.715023e-05
3.586206e-04 -9.123093e-04 -2.917699e-04
3.163955e-04 -6.250735e-04 -1.398423e-04
4.095738e-04 -4.898001e-04 -8.876280e-05
4.932050e-04 -1.336552e-04 3.695166e-05
2.211496e-04 5.105381e-04 1.832525e-04
1.490036e-04 7.884519e-04 1.367026e-04
1.263353e-04 5.039675e-04 1.886046e-04
3.185544e-04 4.911948e-04 1.776627e-04
2.527593e-04 7.771390e-04 1.331696e-04
-1.575390e-05 5.018547e-04 -1.689381e-04
0.000000e+00 3.854768e-04 -1.379138e-04
1.049249e-04 4.259512e-04 -1.030240e-04
1.646608e-05 -1.545078e-04 5.819074e-06
0.000000e+00 -1.590361e-04 1.709404e-06
0.000000e+00 -1.473294e-04 9.299781e-06
-7.188545e-05 -5.443357e-06 -4.079259e-05
5.404769e-04 2.338690e-04 1.373502e-04
5.181765e-04 2.927288e-04 1.149364e-04
5.352399e-04 1.648017e-04 1.226700e-04
3.776579e-04 -2.699676e-04 -1.429848e-05
4.234524e-04 0.000000e+00 2.689012e-05
4.567712e-04 -2.025353e-04 1.393090e-05
5.100570e-04 1.036479e-04 1.067766e-04
4.977091e-04 1.931628e-04 1.036862e-04
-1.294909e-04 -2.578215e-06 -1.162709e-04
4.621392e-04 1.673033e-05 8.673197e-05
2.595263e-04 -3.235372e-04 -4.034836e-05
-1.604590e-04 -3.031615e-04 -4.769655e-05
2.081032e-05 8.992914e-05 -7.805141e-06
0.000000e+00 1.050355e-04 -1.042781e-05
2.841361e-04 2.691757e-04 3.757246e-05
1.911943e-04 2.130607e-04 -5.495494e-05
-1.479257e-05 9.912165e-05 2.191198e-04
-2.193710e-05 2.149809e-04 2.118503e-04
3.979046e-04 -2.292979e-05 3.330825e-05
2.987065e-04 1.246647e-05 1.175890e-05
3.438949e-04 2.885457e-05 3.444160e-05
0.000000e+00 7.143188e-05 -1.280504e-04
2.358909e-04 3.606173e-04 1.463589e-06
-2.119032e-04 -4.605780e-05 -4.244932e-05
2.869506e-04 5.974118e-05 2.955352e-05
1.965151e-04 1.016614e-04 1.368076e-05
2.316244e-04 7.562974e-05 2.210309e-05
-2.437385e-04 -2.329355e-04 -1.768795e-05
-2.048154e-04 0.000000e+00 7.691324e-06
-2.457384e-04 -2.104307e-04 -2.565188e-04
3.169565e-04 0.000000e+00 5.426842e-05
-1.080614e-04 -1.058587e-04 -3.191633e-05
-1.441650e-04 -1.207997e-04 -2.991733e-05
-1.840394e-04 -8.726794e-05 -3.705684e-05
-8.101220e-05 -1.340840e-04 -2.473963e-05
0.000000e+00 9.409153e-05 -3.723392e-05
-1.432287e-04 -2.619333e-05 -4.204055e-05
-2.248839e-04 -1.338205e-07 -4.555934e-05
0.000000e+00 -2.729761e-05 -3.936420e-05
-1.551541e-04 7.011002e-04 4.730846e-05
-2.394493e-04 -1.530457e-04 -6.013643e-05
-1.358242e-04 -2.182873e-05 -1.721363e-05
-2.417639e-04 -1.730553e-04 -1.411490e-04
-3.106221e-04 -8.875254e-04 -3.538134e-04
-2.909425e-04 -4.316376e-04 -1.106783e-04
-2.330566e-04 -5.864981e-04 -1.670033e-04
-2.167573e-04 -1.128561e-03 -4.386091e-04
2.460763e-04 7.010489e-05 1.587684e-05
-3.617316e-04 -6.700831e-04 -4.865041e-04
-2.319854e-04 -2.578010e-04 -3.450232e-04
-6.875615e-06 1.352917e-04 -1.869449e-05
8.722946e-07 1.346390e-04 -1.547367e-05
3.074220e-04 -3.775171e-05 5.219272e-05
3.631983e-04 -1.419794e-05 6.290450e-05
3.035569e-04 -3.456468e-05 5.168722e-05
1.521146e-04 1.157989e-04 8.822093e-06
4.822822e-05 -1.474767e-04 8.172670e-06
4.598153e-05 -1.455925e-04 1.001918e-05
0.000000e+00 1.134687e-04 -2.048727e-04
-1.175086e-04 2.432556e-05 -2.049458e-04
-8.915616e-05 5.662309e-05 -2.630912e-04
-7.146160e-05 5.515034e-04 1.075863e-04
0.000000e+00 5.420969e-04 8.741971e-05
1.461006e-04 -8.623033e-05 2.928375e-05
9.414209e-05 -1.024605e-04 2.400868e-05
4.766085e-04 3.845265e-04 1.616199e-04
4.337889e-04 6.353739e-04 1.307415e-04
4.071601e-04 4.471264e-04 1.708496e-04
0.000000e+00 2.112152e-04 -2.235111e-04
-2.631758e-05 1.018692e-04 -2.571930e-04
7.853668e-05 1.501904e-04 -1.757733e-04
-1.458420e-05 -1.597303e-04 -7.081270e-06
2.143003e-04 0.000000e+00 1.984057e-05
2.362643e-04 4.035313e-05 2.357908e-05
1.828086e-04 4.226194e-05 1.467591e-05
0.000000e+00 -1.543770e-04 -1.519840e-05
-3.184556e-05 -1.455916e-04 -1.939200e-05
4.138753e-04 2.420561e-06 5.133796e-05
3.963879e-04 0.000000e+00 5.159827e-05
3.556130e-04 2.328736e-05 4.347880e-05
0.000000e+00 -1.008975e-04 2.221380e-05
4.332837e-05 -1.155657e-04 1.979427e-05
6.011389e-05 -8.395071e-05 2.541920e-05
-3.360424e-05 3.464383e-04 1.930564e-04
0.000000e+00 3.926486e-04 1.786706e-04
0.000000e+00 5.154705e-04 -1.206904e-04
-5.172252e-05 1.087779e-04 -3.567897e-05
-2.216830e-05 1.386637e-04 -2.500997e-05
3.345857e-04 0.000000e+00 4.101030e-05
3.203841e-04 0.000000e+00 6.557475e-06
-9.721892e-05 -1.426403e-04 -2.136611e-05
-4.836088e-05 -1.522892e-04 -1.643560e-05
5.535438e-04 1.011580e-04 1.385245e-04
5.554842e-04 0.000000e+00 1.495315e-04
5.443554e-04 1.373489e-04 1.555923e-04
4.698703e-04 5.354947e-05 9.094915e-05
4.149576e-04 4.553121e-05 7.691290e-05
4.194590e-04 1.455790e-05 7.608565e-05
3.623248e-04 -2.962320e-06 6.383147e-05
0.000000e+00 1.260704e-04 -1.570933e-05
4.116848e-04 -6.591942e-04 -1.869364e-04
4.579808e-04 -3.458187e-04 -3.978751e-05
-9.845536e-05 -8.380138e-06 5.366815e-05
0.000000e+00 1.204216e-05 2.788644e-05
4.414668e-04 -1.008148e-04 2.283088e-05
-1.456486e-04 1.870576e-05 -4.369664e-05
-2.212033e-04 4.611531e-05 -4.625051e-05
-1.377813e-04 6.154327e-05 -4.296180e-05
5.079491e-04 3.945955e-05 1.031863e-04
5.303631e-04 0.000000e+00 1.129984e-04
5.400178e-04 6.779018e-05 1.207808e-04
-1.519460e-04 -2.481263e-04 -3.503396e-04
-2.579015e-06 -2.050860e-04 -2.524252e-04
4.904168e-04 0.000000e+00 9.539361e-05
3.716392e-04 2.346363e-04 1.941299e-04
3.260547e-04 0.000000e+00 2.048234e-04
2.798003e-04 2.502123e-04 2.020076e-04
-1.160832e-04 6.078286e-04 1.168984e-04
2.313743e-04 0.000000e+00 2.113948e-04
4.892598e-04 5.247936e-04 1.287049e-04
5.215305e-04 3.119888e-04 1.506139e-04
0.000000e+00 1.360100e-04 -2.190407e-05
0.000000e+00 -1.066884e-04 -3.029838e-05
-3.011397e-04 -3.516628e-04 -1.648382e-04
-3.335415e-04 -5.986485e-04 -2.493924e-04
1.341437e-04 4.324916e-05 7.337984e-06
1.149540e-04 0.000000e+00 5.016452e-06
6.380319e-05 0.000000e+00 2.213226e-04
1.166343e-04 -7.869619e-05 2.833102e-05
-2.533116e-04 0.000000e+00 5.533775e-05
-2.342653e-04 -7.214663e-05 4.928134e-05
4.633971e-06 8.229554e-04 -1.896900e-04
-1.973656e-04 1.456956e-03 -3.826579e-04
-1.349519e-04 8.501801e-04 -2.469615e-04
-2.977149e-05 1.335677e-04 2.180033e-04
-2.439596e-04 -9.495692e-04 -4.818135e-04
1.519938e-04 -2.885914e-05 3.455469e-05
1.883333e-04 0.000000e+00 3.800421e-05
-1.510925e-05 -1.588249e-04 -1.110590e-05
2.948003e-04 3.494039e-05 3.356922e-05
0.000000e+00 3.902021e-05 -3.996989e-06
0.000000e+00 0.000000e+00 -3.168763e-06
2.725252e-04 0.000000e+00 2.993843e-05
4.507854e-05 4.750218e-04 1.937632e-04
5.367375e-05 7.583525e-04 1.434395e-04
9.037317e-05 -2.666665e-05 3.104509e-05
5.054536e-05 -4.973798e-05 2.856238e-05
2.907472e-04 3.171273e-04 5.676981e-05
-4.702737e-05 -1.542359e-04 -1.164232e-05
2.963377e-05 -7.481444e-04 -2.003939e-04
-4.887972e-05 3.874938e-04 1.990572e-04
-8.229262e-05 5.249967e-04 1.701536e-04
-2.020671e-04 8.777787e-05 -4.414642e-05
0.000000e+00 3.845844e-05 -4.342907e-05
-2.418143e-05 0.000000e+00 2.225936e-04
-1.629894e-05 2.080885e-04 2.165039e-04
-3.817216e-05 1.994449e-04 2.163457e-04
-3.427072e-04 -4.920894e-04 -3.230878e-04
-3.115067e-04 1.377924e-03 -4.145942e-04
-1.799009e-04 8.291828e-04 4.681949e-05
5.306912e-04 9.604771e-05 2.506887e-04
2.601810e-04 -6.595629e-05 -1.064692e-05
3.578315e-05 0.000000e+00 -1.904276e-06
6.459093e-04 3.138996e-04 3.435628e-04
1.060357e-03 5.794044e-05 9.368537e-04
-2.990385e-05 0.000000e+00 2.212366e-04
1.047313e-03 6.457393e-04 8.456667e-04
5.558152e-04 5.099091e-04 2.365331e-04
2.832691e-04 -2.136906e-05 4.882011e-05
6.664260e-05 8.515534e-05 -2.678503e-06
5.607441e-05 3.428916e-05 -1.825743e-06
8.787487e-05 4.603532e-05 1.130091e-06
-1.325989e-04 6.819167e-04 1.198163e-04
0.000000e+00 4.823186e-04 1.411010e-04
-3.650102e-04 -8.842450e-04 -5.804072e-04
3.018026e-05 -1.387204e-04 1.333444e-05
0.000000e+00 -1.273288e-04 1.644009e-05
7.127970e-05 -1.268893e-04 1.770325e-05
1.618700e-04 0.000000e+00 1.151963e-05
9.680397e-05 8.213877e-05 1.211802e-06
1.360062e-04 8.219500e-05 7.031593e-06
8.233806e-05 1.161028e-04 -1.156984e-06
1.136150e-04 1.171271e-04 3.322612e-06
1.806538e-04 8.134135e-05 1.392916e-05
-1.540836e-05 4.324751e-04 1.961244e-04
1.855181e-05 1.359495e-04 -1.236665e-05
-2.707173e-05 1.502700e-04 -1.950282e-05
-1.065198e-04 6.194561e-04 -3.549166e-05
-9.231849e-05 6.026180e-04 4.123213e-05
1.989553e-04 -7.711525e-05 3.550865e-05
2.409998e-04 -4.857346e-05 4.240917e-05
2.516746e-04 -6.130147e-05 4.245399e-05
-2.559793e-04 0.000000e+00 3.341116e-05
0.000000e+00 5.658535e-04 1.941265e-05
-6.790445e-05 6.116712e-04 1.633242e-04
-1.944355e-05 6.982531e-04 1.524815e-04
-1.308422e-04 -6.908861e-05 -3.820172e-05
1.206570e-04 -1.114385e-04 2.314200e-05
8.811977e-05 -1.312822e-04 1.631765e-05
0.000000e+00 2.512900e-04 -1.512811e-04
8.056932e-06 0.000000e+00 2.228322e-04
-6.108985e-05 3.735549e-04 1.982573e-04
2.528528e-04 0.000000e+00 4.527109e-05
5.710511e-04 1.123491e-03 3.275709e-04
3.026422e-04 6.758534e-04 1.669911e-05
1.041247e-04 1.403079e-03 -1.079105e-04
4.615906e-04 1.105690e-04 9.067077e-05
2.862147e-05 2.269289e-04 2.148518e-04
5.165479e-04 4.064064e-04 1.238260e-04
7.309568e-05 0.000000e+00 2.988407e-07
3.525799e-04 7.242439e-04 1.316135e-04
3.503437e-04 -8.216098e-05 -4.555571e-06
4.652992e-04 -2.069528e-04 -3.137500e-07
0.000000e+00 0.000000e+00 9.349105e-05
0.000000e+00 7.426235e-06 7.761551e-05
-7.695324e-05 -4.700478e-06 8.421155e-05
4.211439e-04 -4.206205e-04 -9.965916e-05
1.737035e-05 -1.572513e-04 1.825416e-06
0.000000e+00 2.768707e-04 2.032772e-04
-1.580411e-04 -2.354614e-05 7.157042e-05
-1.956413e-04 0.000000e+00 7.485354e-05
0.000000e+00 1.434592e-04 2.161606e-04
4.086856e-05 -2.259267e-05 2.963656e-05
1.243166e-04 0.000000e+00 3.326731e-05
0.000000e+00 3.314007e-04 -8.194295e-05
0.000000e+00 2.838207e-04 -6.836012e-05
0.000000e+00 2.972193e-04 -2.273867e-05
0.000000e+00 1.616545e-04 -2.429363e-04
0.000000e+00 7.437724e-05 -6.496559e-06
5.534206e-04 0.000000e+00 1.314101e-04
4.857114e-04 0.000000e+00 4.701121e-05
0.000000e+00 -6.903146e-05 2.633170e-05
0.000000e+00 3.078255e-04 -3.988522e-05
-1.093106e-04 0.000000e+00 8.731803e-05
0.000000e+00 0.000000e+00 2.199152e-04
6.204369e-05 0.000000e+00 3.049053e-05
3.948510e-04 -2.237427e-04 -3.964714e-05
0.000000e+00 -3.541187e-05 2.881982e-05
0.000000e+00 0.000000e+00 2.966120e-05
-2.019562e-05 0.000000e+00 2.202679e-04
5.595775e-05 1.095667e-04 -5.676769e-06
2.465701e-04 -6.981597e-04 1.923881e-04
7.565177e-05 -8.570312e-04 -1.090030e-04
3.724356e-04 -2.867155e-04 1.920053e-04
-7.189485e-06 -1.582295e-04 -4.453362e-06
1.105581e-05 -1.562767e-04 7.188758e-08
7.962394e-04 -1.942115e-04 7.624806e-04
5.438124e-04 -1.504049e-04 3.703647e-04
2.617950e-05 -1.519134e-04 3.416685e-06
-2.188772e-05 -1.558158e-04 -6.627909e-06
4.280700e-04 -3.988919e-04 3.202191e-04
3.554947e-04 -6.239195e-04 3.342640e-04
4.765368e-04 -5.197381e-04 4.812318e-04
-2.444337e-06 -1.569209e-04 -2.995349e-06
3.161627e-06 -1.552368e-04 -1.484720e-06
7.527274e-06 -1.558201e-04 -7.461613e-07
6.319358e-04 -3.543379e-04 6.319259e-04
5.285635e-04 -3.082149e-04 4.298390e-04
1.480655e-05 -1.537673e-04 9.270770e-07
-9.216054e-06 -1.557511e-04 -3.968042e-06
2.017100e-04 2.199620e-03 -6.816969e-04
2.301467e-04 1.402376e-03 -3.171047e-04
1.713406e-04 7.461657e-05 3.153845e-05
1.484194e-04 1.882786e-04 1.886261e-05
2.653460e-05 -1.324550e-04 5.587756e-06
2.830268e-06 -1.135276e-04 5.688943e-06
8.423805e-05 -7.205734e-05 1.852280e-05
1.705587e-04 -6.527090e-05 3.030436e-05
3.368751e-04 7.841528e-04 -4.851899e-05
9.102009e-05 6.222158e-04 -7.000839e-05
4.755619e-04 2.962727e-04 9.392333e-05
4.924446e-04 4.374191e-04 9.687803e-05
3.484386e-04 3.792249e-04 3.866416e-05
4.399880e-04 4.285128e-04 6.583792e-05
-4.224384e-04 1.896223e-03 -5.776547e-04
-5.035715e-04 3.035005e-02 -9.574663e-03
-4.864516e-04 1.177145e-02 -4.237428e-03
-9.763671e-04 1.857720e-02 -5.841142e-03
1.925151e-04 1.384136e-02 -5.145253e-03
4.840801e-04 5.936064e-04 9.493668e-05
4.480972e-04 7.550151e-04 8.571801e-05
3.794333e-04 8.982307e-04 7.486552e-05
-4.328163e-04 2.252720e-03 -7.025760e-04
-2.143558e-04 1.969809e-03 -3.973731e-04
-6.962715e-05 1.676421e-03 -2.191685e-04
-7.820638e-05 2.219765e-03 -4.950093e-04
-2.288212e-04 2.605512e-03 -7.334928e-04
6.091467e-05 1.356854e-03 -5.279035e-05
4.407645e-04 1.787816e-04 8.572212e-05
3.950785e-04 8.578296e-05 7.457510e-05
1.183161e-04 3.532923e-04 -7.270755e-06
-1.400344e-03 1.196413e-02 -2.279932e-03
-4.738648e-04 4.971262e-03 -8.191902e-04
-6.143542e-04 3.869345e-03 -1.159734e-03
-8.969056e-04 7.049326e-03 -2.144795e-03
-8.954823e-04 3.229624e-02 -3.790935e-03
-1.045341e-03 1.067021e-02 -3.550359e-03
-4.091384e-04 1.008422e-02 -3.831545e-03
2.195632e-04 1.631062e-03 -2.041880e-04
3.216434e-04 1.410894e-03 -1.501999e-04
2.095421e-04 2.420537e-03 -7.040474e-04
9.990650e-05 -1.287148e-04 1.604962e-05
4.304735e-05 -1.430343e-04 6.632663e-06
1.775713e-04 2.494674e-03 1.062936e-04
1.166496e-03 1.707945e-03 1.421046e-03
2.810216e-04 1.006338e-03 6.537340e-05
-3.144325e-04 2.566128e-03 -5.924559e-04
2.437561e-04 -6.626123e-05 4.097910e-05
2.930982e-04 -3.305686e-05 5.031650e-05
-1.609731e-04 6.668527e-04 -7.752002e-05
-8.317438e-05 3.656006e-04 -1.791060e-05
9.057333e-05 -1.043710e-04 1.681470e-05
9.873489e-05 -1.207183e-04 1.643199e-05
-3.654139e-04 1.577426e-03 -3.798385e-04
-2.925140e-04 1.308763e-03 -1.808264e-04
1.492987e-04 -1.087074e-04 2.559903e-05
3.047909e-04 1.607948e-03 -3.231973e-04
3.800031e-04 1.133204e-03 -8.760944e-05
3.444914e-04 1.621285e-05 6.201094e-05
-3.414250e-05 -8.269150e-05 5.215449e-06
-8.337804e-05 -3.130021e-05 4.770151e-06
6.355153e-05 -1.920804e-05 1.945619e-05
1.991952e-03 5.859766e-04 2.472464e-03
-2.339364e-04 1.455774e-03 -1.726254e-04
-2.191191e-04 1.095402e-03 -3.715225e-05
2.711218e-04 5.519595e-04 -1.882672e-05
2.426491e-04 3.225536e-04 1.809612e-05
2.055161e-04 -8.453730e-05 3.486989e-05
2.339007e-04 8.838527e-04 -1.132444e-04
3.330404e-04 1.099784e-03 -1.428454e-04
-1.482580e-04 8.701161e-04 7.948830e-05
-8.254810e-05 8.579049e-04 1.035401e-04
1.010856e-04 2.286432e-03 -5.503762e-04
1.593800e-04 3.435601e-03 -1.246052e-03
5.407893e-05 1.033389e-03 -2.022682e-04
1.674861e-04 1.051302e-03 6.305322e-05
-1.514368e-04 4.453958e-05 7.984992e-06
-3.422360e-05 9.640113e-04 8.381695e-05
-1.403817e-04 1.144816e-03 -1.054851e-06
1.683605e-04 -9.972858e-05 2.810025e-05
-1.120335e-03 2.243256e-03 -2.856611e-04
3.059644e-03 3.566274e-03 4.032027e-03
-4.371121e-04 2.323152e-03 -7.074311e-04
4.384740e-04 8.287214e-04 3.040454e-05
4.010057e-04 8.385814e-04 -2.148512e-05
-1.382550e-03 4.607522e-03 -1.118159e-03
-2.402313e-04 1.620339e-04 9.894745e-06
-3.319516e-04 1.841217e-03 -4.195445e-04
-3.463361e-04 2.548581e-03 -7.488490e-04
1.457623e-03 1.537552e-02 2.791252e-03
2.425880e-05 6.007918e-05 1.495635e-05
-2.150024e-05 1.812193e-04 4.860832e-06
1.967738e-04 -3.736505e-06 3.608453e-05
-3.512612e-04 3.817773e-03 -1.281453e-03
5.730699e-05 1.037440e-03 6.761522e-05
3.933409e-04 1.041752e-03 -4.062295e-07
2.582459e-05 1.737398e-03 -4.766843e-04
-3.449807e-04 2.073174e-03 -5.521616e-04
-2.593313e-04 1.171099e-03 -2.195035e-04
3.096867e-04 4.559558e-05 5.463874e-05
3.579162e-04 1.378113e-04 6.449875e-05
5.897558e-04 5.309230e-03 8.872325e-04
-5.497151e-04 2.985547e-03 -1.001700e-03
4.544475e-04 6.218150e-04 5.336991e-05
1.916468e-05 4.941833e-03 -1.862608e-03
-3.213954e-04 3.418396e-03 -1.153679e-03
-4.737488e-04 4.898618e-03 -1.824419e-03
-3.109992e-04 6.447838e-03 -2.480822e-03
-1.949559e-04 4.333711e-03 -1.581397e-03
-7.937424e-04 1.207331e-03 -5.701283e-05
-5.302630e-04 6.605551e-04 -1.771272e-06
-3.629452e-04 3.503080e-04 1.186961e-05
-1.213431e-04 7.563568e-03 -2.798467e-03
-1.071353e-05 2.904090e-03 -9.898727e-04
1.906491e-04 1.336613e-03 -4.903835e-05
6.975526e-05 1.755628e-03 -2.479217e-04
3.087767e-04 1.220365e-03 -2.987365e-05
-4.912829e-04 3.413318e-03 -1.174165e-03
-6.705992e-04 7.229216e-03 -2.661085e-03
4.779534e-05 3.324586e-03 -1.111724e-03
2.864769e-04 1.987955e-04 4.371730e-05
3.899175e-04 5.973520e-04 1.432091e-05
2.604164e-04 -2.248868e-05 4.519076e-05
-4.950728e-05 1.286554e-03 -3.395110e-05
-6.767962e-04 4.786948e-03 -1.686979e-03
-1.162307e-04 2.995945e-03 -9.266140e-04
4.030988e-04 2.662795e-04 6.764477e-05
-1.497842e-04 1.506936e-03 -1.561248e-04
-3.855465e-05 7.882827e-03 -3.016531e-03
1.507798e-04 -9.455571e-05 2.565352e-05
2.692140e-04 8.383523e-05 4.667030e-05
2.174878e-04 -6.772138e-05 3.668385e-05
2.443448e-04 1.873193e-03 -3.791392e-04
-5.252393e-05 5.002910e-03 -1.845487e-03
5.609373e-03 1.230830e-02 9.023593e-03
1.441527e-03 -3.396623e-04 2.322823e-03
1.127401e-03 -2.933109e-04 1.458070e-03
-1.678179e-04 -3.626580e-05 2.435574e-06
2.256157e-03 9.138222e-05 4.041017e-03
-1.291068e-04 -6.130542e-05 -3.090581e-07
-2.559324e-04 3.639837e-05 1.107490e-05
-1.873951e-03 2.073572e-03 1.966912e-04
3.182590e-03 1.351361e-03 5.604195e-03
-3.088748e-03 4.413739e-03 -2.963558e-04
5.927820e-03 3.743325e-03 8.990392e-03
4.974755e-03 3.155819e-02 6.336340e-03
-3.797520e-03 1.320529e-02 -3.920578e-03
-1.292498e-03 2.944036e-02 -8.307081e-03
-2.817384e-05 -1.263640e-04 -5.883522e-08
1.231522e-05 -1.463184e-04 1.600093e-06