# vtk DataFile Version 2.0
Simplicial Mesh Example
ASCII
DATASET UNSTRUCTURED_GRID
POINTS 9490 double
4.132646e+04 -3.761110e+05 -2.495947e+04
1.739130e+04 -4.000000e+05 0.000000e+00
1.424943e+04 -3.757412e+05 -2.497841e+04
3.478261e+04 -4.000000e+05 -2.478841e+04
3.431474e+04 -3.668361e+05 0.000000e+00
6.536071e+04 -3.800007e+05 -2.495579e+04
5.217391e+04 -4.000000e+05 0.000000e+00
5.217391e+04 -4.000000e+05 -5.000000e+04
6.848295e+04 -3.663208e+05 -5.000000e+04
1.739130e+04 -4.000000e+05 -5.000000e+04
3.422046e+04 -3.663210e+05 -5.000000e+04
-4.000000e+05 1.043476e+05 -2.478869e+04
-3.778006e+05 1.290431e+05 -2.559237e+04
-3.668348e+05 1.033122e+05 0.000000e+00
-3.750401e+05 1.075547e+05 -3.181274e+04
4.000000e+05 -3.652174e+05 -2.500000e+04
3.692598e+05 -3.333058e+05 -2.499312e+04
3.776504e+05 -3.747415e+05 -2.247043e+04
3.693733e+05 -3.529960e+05 0.000000e+00
-4.000000e+05 8.695652e+04 0.000000e+00
-3.760516e+05 8.212939e+04 -2.543564e+04
-3.482879e+05 1.253124e+05 -2.574623e+04
-3.665651e+05 9.874016e+04 -5.000000e+04
-3.495547e+05 9.060720e+04 -2.563270e+04
-3.071185e+05 -3.486990e+05 -2.261025e+04
-3.153762e+05 -3.243183e+05 -5.000000e+04
-3.287827e+05 -3.355430e+05 -2.504110e+04
-3.095113e+05 -3.153966e+05 -2.507638e+04
-2.962358e+05 -3.323448e+05 0.000000e+00
-3.357456e+05 -3.422369e+05 0.000000e+00
-2.772919e+05 -3.669732e+05 0.000000e+00
-2.934123e+05 -3.742563e+05 -2.511903e+04
-2.806419e+05 -3.463229e+05 -2.661752e+04
-3.140042e+05 -3.607419e+05 -5.000000e+04
-3.320497e+05 -3.703516e+05 -2.524928e+04
-3.224905e+05 6.841821e+04 -2.756000e+04
-3.000000e+05 4.234958e+04 -2.422604e+04
-3.000000e+05 5.362570e+04 -5.000000e+04
-3.000000e+05 7.749820e+04 -2.479801e+04
3.227610e+05 -1.685566e+05 -2.697912e+04
3.499303e+05 -1.919500e+05 -2.498446e+04
3.500600e+05 -1.567367e+05 -2.546429e+04
3.335574e+05 -1.858748e+05 0.000000e+00
3.000000e+05 -1.659466e+05 0.000000e+00
3.208602e+05 -1.947095e+05 -2.232217e+04
3.000000e+05 -1.806737e+05 -2.506219e+04
3.330650e+05 -1.842018e+05 -5.000000e+04
3.000000e+05 -1.978940e+05 -5.000000e+04
3.000000e+05 -1.638587e+05 -5.000000e+04
-1.949782e+05 -3.787045e+05 -2.503133e+04
-1.713812e+05 -3.663209e+05 -5.000000e+04
-1.725141e+05 -3.772415e+05 -2.530126e+04
-1.913043e+05 -4.000000e+05 -5.000000e+04
-1.972219e+05 -3.510331e+05 -2.499278e+04
-1.739069e+05 -4.000000e+05 -2.478809e+04
-1.716829e+05 -3.668361e+05 0.000000e+00
-1.913043e+05 -4.000000e+05 0.000000e+00
1.358880e+05 -3.243044e+05 -2.504137e+04
1.166322e+05 -3.000000e+05 -2.516475e+04
1.497984e+05 -3.000000e+05 -2.516553e+04
1.333333e+05 -3.000000e+05 -5.000000e+04
1.825802e+05 3.751615e+05 -2.720292e+04
2.119132e+05 3.796036e+05 -2.524922e+04
2.061857e+05 3.668333e+05 0.000000e+00
1.947422e+05 3.503722e+05 -2.524152e+04
1.565217e+05 4.000000e+05 0.000000e+00
1.528807e+05 3.759790e+05 -2.499953e+04
1.739069e+05 4.000000e+05 -2.478809e+04
1.716839e+05 3.668365e+05 0.000000e+00
1.913043e+05 4.000000e+05 0.000000e+00
1.565217e+05 4.000000e+05 -5.000000e+04
1.713714e+05 3.663108e+05 -5.000000e+04
1.613560e+05 3.500277e+05 -2.506640e+04
-8.982230e+04 3.792244e+05 -2.494679e+04
-6.535746e+04 3.800015e+05 -2.495585e+04
-6.848071e+04 3.663195e+05 -5.000000e+04
-8.695652e+04 4.000000e+05 -5.000000e+04
-6.956522e+04 4.000000e+05 -2.478801e+04
-9.132937e+04 3.518806e+05 -2.497956e+04
-8.695652e+04 4.000000e+05 0.000000e+00
-6.863978e+04 3.668364e+05 0.000000e+00
8.983161e+04 -3.792230e+05 -2.494676e+04
8.695652e+04 -4.000000e+05 -5.000000e+04
6.956522e+04 -4.000000e+05 -2.478801e+04
8.695652e+04 -4.000000e+05 0.000000e+00
9.134075e+04 -3.518804e+05 -2.497894e+04
6.864043e+04 -3.668360e+05 0.000000e+00
-1.485035e+05 -3.773486e+05 -2.721498e+04
-1.630495e+05 -3.485427e+05 -2.521974e+04
-1.185212e+05 -3.761066e+05 -2.504756e+04
-1.217391e+05 -4.000000e+05 -5.000000e+04
-1.370985e+05 -3.663236e+05 -5.000000e+04
-1.217391e+05 -4.000000e+05 0.000000e+00
-1.391294e+05 -4.000000e+05 -2.478846e+04
-1.373218e+05 -3.668365e+05 0.000000e+00
-1.565217e+05 -4.000000e+05 0.000000e+00
-1.276844e+05 -3.500075e+05 -2.505733e+04
-3.784905e+05 1.568709e+05 -2.476156e+04
-3.664298e+05 1.337587e+05 -5.000000e+04
-3.514457e+05 1.599418e+05 -2.483113e+04
-4.000000e+05 1.565217e+05 -5.000000e+04
-4.000000e+05 1.391294e+05 -2.478846e+04
-3.668349e+05 1.375908e+05 0.000000e+00
-4.000000e+05 1.565217e+05 0.000000e+00
3.668265e+05 -1.714683e+05 0.000000e+00
4.000000e+05 -1.913043e+05 0.000000e+00
4.000000e+05 -1.739069e+05 -2.478809e+04
4.000000e+05 -1.565217e+05 0.000000e+00
3.763528e+05 1.812702e+05 -2.493822e+04
4.000000e+05 1.565217e+05 0.000000e+00
3.764050e+05 1.528124e+05 -2.490916e+04
4.000000e+05 1.739130e+05 -2.478510e+04
3.668383e+05 1.722952e+05 0.000000e+00
3.797466e+05 2.119345e+05 -2.497186e+04
4.000000e+05 1.913043e+05 -5.000000e+04
3.662642e+05 2.068445e+05 -5.000000e+04
3.507120e+05 1.619053e+05 -2.490325e+04
3.662844e+05 1.729597e+05 -5.000000e+04
4.000000e+05 1.565217e+05 -5.000000e+04
3.776488e+05 -7.900637e+04 -2.735718e+04
3.762845e+05 -4.901174e+04 -2.508786e+04
3.663605e+05 -6.676216e+04 -5.000000e+04
3.502306e+05 -5.807827e+04 -2.511783e+04
4.000000e+05 -5.217391e+04 -5.000000e+04
3.773063e+05 -1.038824e+05 -2.578879e+04
4.000000e+05 -8.695652e+04 0.000000e+00
3.668372e+05 -1.026508e+05 0.000000e+00
4.000000e+05 -5.217391e+04 0.000000e+00
4.000000e+05 -6.956519e+04 -2.478879e+04
3.668380e+05 -6.826645e+04 0.000000e+00
4.000000e+05 -1.043476e+05 -2.478869e+04
-1.666667e+05 -3.000000e+05 -5.000000e+04
-1.833333e+05 -3.000000e+05 -2.518468e+04
-1.933582e+05 -3.216521e+05 -2.503520e+04
-1.657267e+05 -3.213415e+05 -2.506307e+04
-1.666667e+05 -3.000000e+05 0.000000e+00
3.334882e+05 -2.202831e+05 0.000000e+00
3.000000e+05 -1.994599e+05 0.000000e+00
3.000000e+05 -2.085861e+05 -2.501244e+04
-1.859359e+05 -3.331067e+05 -5.000000e+04
-1.862587e+05 -3.335758e+05 0.000000e+00
-4.132523e+04 3.761107e+05 -2.495957e+04
-3.478261e+04 4.000000e+05 -2.478841e+04
-5.217391e+04 4.000000e+05 -5.000000e+04
-1.739130e+04 4.000000e+05 -5.000000e+04
-1.424890e+04 3.757408e+05 -2.497844e+04
-3.421938e+04 3.663190e+05 -5.000000e+04
-5.217391e+04 4.000000e+05 0.000000e+00
-1.739130e+04 4.000000e+05 0.000000e+00
-3.431405e+04 3.668365e+05 0.000000e+00
-2.739007e+04 3.505180e+05 -2.498776e+04
-1.739130e+05 4.000000e+05 -2.478510e+04
-1.528672e+05 3.759826e+05 -2.500255e+04
-1.716148e+05 3.668263e+05 0.000000e+00
-1.825315e+05 3.751689e+05 -2.721318e+04
-1.913043e+05 4.000000e+05 0.000000e+00
-2.059314e+05 3.667832e+05 0.000000e+00
-2.118669e+05 3.796033e+05 -2.526514e+04
-1.612599e+05 3.500460e+05 -2.507149e+04
-1.913043e+05 4.000000e+05 -5.000000e+04
-2.056558e+05 3.663226e+05 -5.000000e+04
-1.712892e+05 3.663242e+05 -5.000000e+04
-1.565217e+05 4.000000e+05 -5.000000e+04
3.507710e+05 -3.071241e+05 -1.983709e+04
3.472371e+05 -2.783609e+05 -2.630278e+04
3.316724e+05 -2.967750e+05 0.000000e+00
3.666108e+05 -2.775848e+05 0.000000e+00
3.309559e+05 -3.255688e+05 -2.698212e+04
3.397681e+05 -3.369212e+05 0.000000e+00
3.744093e+05 -2.934608e+05 -2.492539e+04
3.303054e+05 -2.869393e+05 -5.000000e+04
3.606270e+05 -3.135064e+05 -5.000000e+04
-3.238506e+05 1.781151e+05 -2.284516e+04
-3.335738e+05 1.866432e+05 0.000000e+00
-3.000000e+05 1.673499e+05 0.000000e+00
-3.000000e+05 2.005124e+05 0.000000e+00
-3.242363e+05 2.019112e+05 -2.479758e+04
-3.335722e+05 1.528704e+05 0.000000e+00
-3.219833e+05 1.550144e+05 -2.418889e+04
-3.331119e+05 1.814444e+05 -5.000000e+04
-3.500623e+05 1.947691e+05 -2.492389e+04
3.000000e+05 -1.480457e+05 -2.518612e+04
3.070808e+05 3.546107e+05 -1.714572e+04
2.838715e+05 3.432764e+05 -2.626473e+04
2.962288e+05 3.323792e+05 0.000000e+00
2.772894e+05 3.669850e+05 0.000000e+00
3.214547e+05 3.369143e+05 -2.636251e+04
3.136723e+05 3.607135e+05 -5.000000e+04
2.935138e+05 3.747013e+05 -2.499119e+04
3.357389e+05 3.423035e+05 0.000000e+00
3.310854e+05 3.708053e+05 -2.520548e+04
-3.303425e+05 2.864208e+05 -5.000000e+04
-3.469504e+05 2.817468e+05 -2.677742e+04
-3.300427e+05 3.281790e+05 -2.631692e+04
-3.606526e+05 3.133330e+05 -5.000000e+04
-3.538099e+05 3.084519e+05 -1.787405e+04
-3.749470e+05 2.933940e+05 -2.493585e+04
-3.716865e+05 3.330494e+05 -2.604840e+04
-3.422611e+05 3.357632e+05 0.000000e+00
-3.323575e+05 2.962961e+05 0.000000e+00
-3.669772e+05 2.773495e+05 0.000000e+00
-3.208683e+05 1.285984e+05 -2.543766e+04
-3.000000e+05 1.341874e+05 0.000000e+00
-3.000000e+05 1.457374e+05 -2.479770e+04
-3.331557e+05 1.463574e+05 -5.000000e+04
-3.335717e+05 1.191216e+05 0.000000e+00
-3.000000e+05 1.116890e+05 -2.479816e+04
3.750985e+05 1.731082e+04 -2.495385e+04
3.668370e+05 3.487991e+04 0.000000e+00
3.766226e+05 5.120408e+04 -2.491509e+04
3.486553e+05 3.094323e+04 -2.470062e+04
3.664079e+05 2.208090e+03 -5.000000e+04
3.755591e+05 -1.521008e+04 -2.489784e+04
3.365423e+05 9.969610e+02 -2.491966e+04
3.668382e+05 4.985393e+02 0.000000e+00
4.000000e+05 8.858707e-04 -2.478866e+04
4.000000e+05 1.739130e+04 0.000000e+00
3.664904e+05 3.662308e+04 -5.000000e+04
4.000000e+05 1.739130e+04 -5.000000e+04
4.000000e+05 3.478261e+04 -2.478841e+04
3.241835e+05 -1.338846e+05 -2.511108e+04
3.331162e+05 -1.156285e+05 -5.000000e+04
3.331063e+05 -1.499070e+05 -5.000000e+04
3.000000e+05 -1.298234e+05 -5.000000e+04
3.000000e+05 -1.142814e+05 -2.518156e+04
3.501925e+05 -1.229656e+05 -2.536930e+04
3.335703e+05 -1.518628e+05 0.000000e+00
3.335746e+05 -1.178848e+05 0.000000e+00
3.000000e+05 -1.324332e+05 0.000000e+00
-1.185180e+05 -3.335740e+05 0.000000e+00
-1.333333e+05 -3.000000e+05 0.000000e+00
-1.000000e+05 -3.000000e+05 0.000000e+00
-1.166667e+05 -3.000000e+05 -2.516967e+04
3.767701e+05 8.545747e+04 -2.498937e+04
4.000000e+05 8.695652e+04 -5.000000e+04
3.664910e+05 7.093362e+04 -5.000000e+04
3.664147e+05 1.050627e+05 -5.000000e+04
4.000000e+05 8.695652e+04 0.000000e+00
3.668311e+05 6.925743e+04 0.000000e+00
4.000000e+05 6.956522e+04 -2.478801e+04
3.532003e+05 6.143720e+04 -2.460611e+04
3.529343e+05 9.380645e+04 -2.566405e+04
-6.874474e+04 -3.242435e+05 -2.504036e+04
[...]
CELL_DATA 20058
SCALARS total_strain double 6
LOOKUP_TABLE default
1.175202e-10 4.607683e-10 -1.227665e-10 -7.859087e-10 -1.280440e-11 -5.956999e-11
-3.053247e-10 5.666090e-10 -8.711765e-11 -5.901497e-10 -7.475176e-11 1.149913e-11
4.235625e-10 2.428819e-10 -1.783507e-10 -6.810325e-10 -5.721495e-11 -8.336898e-11
2.256888e-10 2.978124e-10 -1.341218e-10 -7.366456e-10 -4.438844e-11 4.266876e-11
-1.808367e-10 5.202541e-10 -1.204302e-10 -5.477587e-10 -5.097417e-11 -6.426970e-12
-1.313794e-11 4.172716e-10 -1.271201e-10 -7.349499e-10 -8.227885e-11 -2.543954e-11
1.900262e-10 3.336087e-10 -1.299584e-10 -6.058638e-10 -5.733336e-11 -2.091241e-11
-8.319549e-10 -4.224273e-09 9.078083e-10 2.675219e-09 3.517893e-10 3.003775e-11
-1.802688e-09 -3.921638e-09 1.188601e-09 3.484374e-09 8.826195e-10 -4.101053e-11
-9.044197e-10 -4.066113e-09 1.177438e-09 2.508737e-09 6.368889e-10 -3.739054e-11
-2.075170e-09 -2.131560e-09 1.138005e-09 2.497138e-09 5.604281e-10 -1.653242e-10
-1.668957e-09 -3.733174e-09 1.092465e-09 3.072865e-09 8.638159e-10 -2.737413e-10
-1.198857e-09 -3.712623e-09 1.184636e-09 2.741254e-09 4.206366e-10 5.693434e-11
2.370394e-09 -1.210687e-09 -3.283859e-10 -3.125578e-11 9.006046e-12 3.781586e-11
2.155472e-09 -1.249458e-09 -3.402043e-10 6.203035e-11 1.588098e-12 -2.645806e-11
2.167713e-09 -1.213264e-09 -3.136389e-10 8.863763e-11 3.875877e-11 -8.350209e-12
-3.341756e-10 -4.069022e-09 1.126252e-09 -1.110227e-09 -5.809086e-11 -2.340834e-10
-1.560371e-09 -1.106715e-09 1.646829e-10 3.699983e-10 -4.492240e-11 -5.901279e-12
-1.547991e-10 -4.135522e-09 1.159642e-09 -6.654413e-10 -1.196976e-11 5.170001e-11
1.523057e-10 -4.069003e-09 1.130514e-09 -1.100161e-09 -5.772738e-11 -1.544017e-10
4.967842e-10 -4.148123e-09 1.200997e-09 -5.898151e-10 -2.015699e-11 -1.263151e-10
3.466414e-10 -4.930284e-09 1.202335e-09 -9.325044e-10 -1.633832e-11 -1.246524e-10
-7.489618e-10 9.323795e-10 -4.401457e-11 -4.394063e-10 -4.519507e-11 -2.516820e-11
-7.232792e-11 5.330331e-09 -2.891661e-09 -1.739203e-09 1.058287e-09 -1.690190e-09
-5.581668e-10 7.756591e-10 -4.448220e-11 -3.754261e-10 -2.995204e-11 2.432299e-11
-9.747172e-10 9.513554e-10 -2.748424e-11 -3.317284e-10 -1.565281e-11 -4.334277e-11
-9.059935e-10 9.387859e-10 -1.914247e-11 -3.122871e-10 -2.566786e-11 -3.778888e-11
-7.258860e-10 9.515881e-10 -1.845102e-11 -2.485727e-10 -1.513656e-11 -1.842071e-11
-7.961827e-10 9.434817e-10 -2.111911e-11 -2.551312e-10 -1.561973e-11 3.301454e-11
4.072365e-11 4.932623e-10 -1.607692e-10 -4.990601e-10 -9.937140e-11 -2.922607e-12
2.024816e-10 2.636114e-10 -1.301355e-10 -3.283689e-10 -1.261202e-11 2.637224e-11
7.300160e-11 1.793055e-10 -1.660383e-10 -5.406616e-10 -2.928732e-11 2.616807e-11
1.422625e-09 -5.742326e-09 -7.149872e-10 1.544232e-09 -1.339895e-09 1.397037e-10
1.745248e-09 -5.530008e-09 -6.110108e-10 1.036057e-09 -4.542133e-10 1.526212e-10
1.454011e-09 -6.058727e-09 -4.719102e-10 1.467045e-09 -7.091765e-10 2.349754e-10
1.896641e-09 -9.698073e-10 -3.195026e-10 -3.523520e-10 -2.350786e-11 1.201425e-10
2.027601e-09 -9.266825e-10 -3.247580e-10 -2.999135e-10 2.440798e-12 3.672029e-11
1.799334e-09 -8.485364e-10 -2.932479e-10 -3.990944e-10 -3.963307e-11 3.387368e-11
1.405180e-09 -7.340684e-10 -2.906276e-10 -3.753828e-10 -2.263764e-11 -8.604673e-12
-1.214460e-09 7.217784e-10 1.949505e-10 9.667978e-11 1.840683e-11 8.978163e-11
1.914033e-09 -9.186351e-10 -3.089831e-10 -2.878526e-10 -3.314693e-11 1.199201e-10
-3.532072e-10 6.024832e-10 -6.444456e-09 2.492470e-09 -2.495322e-09 1.699897e-09
1.601308e-09 -7.091260e-10 -3.199540e-10 -3.920863e-10 -6.849431e-12 -8.569367e-12
-1.709133e-09 6.725163e-10 3.314753e-10 1.055529e-10 4.656986e-11 -3.872025e-11
-1.722158e-09 7.149961e-10 3.124256e-10 8.595968e-11 9.411916e-12 -3.645284e-11
-1.661809e-09 6.994743e-10 2.906306e-10 6.955014e-11 2.565759e-11 -4.245271e-12
-1.744594e-09 7.691305e-10 3.102372e-10 1.150644e-10 3.853795e-11 -4.687467e-11
-1.764930e-09 7.949008e-10 3.033036e-10 6.328177e-11 -1.302236e-12 -3.427661e-12
9.494054e-09 3.339167e-10 -1.965468e-10 4.512835e-09 1.046187e-09 8.616057e-10
2.319626e-09 -8.428182e-09 1.732109e-09 2.182330e-10 2.220277e-16 -3.866618e-11
1.334660e-08 -2.351150e-09 3.317984e-10 4.480345e-09 1.016505e-09 3.603982e-09
5.149171e-09 5.268488e-10 -2.066536e-09 4.513831e-09 -4.089625e-10 -1.554000e-10
9.230341e-09 4.803536e-10 -5.913983e-10 4.980493e-09 1.702306e-09 1.585007e-09
1.045132e-08 5.200654e-10 -4.999063e-10 6.701486e-09 1.791928e-09 2.951187e-09
1.126129e-09 3.513733e-09 -8.737921e-09 1.907577e-09 -1.050302e-09 5.994559e-10
1.476094e-08 -5.498564e-09 8.186403e-10 -1.383838e-09 -3.834855e-11 1.088923e-09
1.332929e-08 -6.687620e-09 2.458323e-09 7.986571e-10 6.593900e-11 2.117755e-10
1.419971e-08 -6.450533e-09 4.460254e-10 -6.504305e-10 6.671832e-10 5.692571e-10
1.423339e-08 -6.879246e-09 2.070108e-09 -9.121123e-10 -3.734402e-10 2.835578e-10
1.422790e-08 -7.018162e-09 2.077263e-09 4.446889e-10 3.835317e-10 2.884334e-10
1.458045e-08 -6.958107e-09 2.905423e-09 -6.153719e-10 2.221682e-10 8.364232e-10
1.131643e-08 -3.737970e-09 2.566121e-09 -4.613054e-09 -1.180180e-09 3.330027e-09
9.324366e-09 -3.224487e-09 2.888027e-09 -3.697632e-09 -7.941882e-10 2.096936e-09
9.185939e-09 -3.001537e-09 1.652471e-09 -3.863150e-09 -2.199545e-10 2.512845e-09
1.582294e-08 -6.586072e-09 2.912193e-09 -2.422520e-09 -5.004889e-11 6.010978e-09
1.531996e-08 -6.566229e-09 8.471522e-09 -2.430895e-09 -4.032530e-10 5.553005e-09
1.156667e-08 -4.458066e-09 2.773909e-09 -4.097541e-09 -1.184060e-09 1.823627e-09
1.149260e-08 -5.057378e-09 4.761989e-09 -4.351601e-09 -1.638638e-09 1.350817e-09
1.783697e-09 2.910200e-09 -1.145423e-09 -2.793197e-09 -1.142544e-10 -4.113578e-10
6.559487e-09 2.749738e-09 4.984368e-11 -3.634559e-09 -4.796304e-10 1.988506e-09
8.738541e-09 -2.471365e-10 -4.553913e-11 -3.303739e-09 -6.980118e-10 2.310008e-09
2.290863e-09 1.252617e-09 2.157385e-10 -2.270695e-09 -4.419920e-10 6.707565e-10
5.651527e-09 -5.630088e-10 -8.950880e-10 -2.309617e-09 -1.570951e-10 6.642014e-10
-5.933032e-10 8.179373e-10 -5.583844e-11 -2.505960e-10 -2.760947e-11 2.622613e-11
-4.887877e-10 7.848195e-10 -6.556145e-11 -3.287606e-10 -5.303981e-11 -1.531475e-11
-2.040910e-10 6.497576e-10 -1.093248e-10 -3.316214e-10 -4.451417e-11 -2.453460e-11
-4.612204e-10 6.167449e-10 -8.937562e-11 -2.248055e-10 -5.187295e-11 -2.196932e-11
-9.188725e-10 5.575966e-10 1.130318e-10 3.023581e-11 3.647482e-11 -1.920200e-11
-1.056683e-09 6.526868e-10 1.248042e-10 5.682121e-12 2.630562e-11 9.525158e-12
-9.899506e-10 3.754066e-09 -5.512210e-09 1.170208e-09 -5.668965e-10 3.911683e-10
-1.120111e-09 6.606697e-10 1.401530e-10 7.498313e-11 4.152878e-11 4.629874e-11
-1.058822e-09 6.696415e-10 1.190343e-10 1.136939e-10 3.304151e-11 -1.043565e-11
-9.880532e-10 5.960983e-10 1.211526e-10 1.993117e-10 5.104317e-11 3.753631e-11
-8.894130e-10 4.880665e-10 1.139160e-10 1.092535e-10 2.846168e-11 4.583667e-12
-4.037667e-09 5.051147e-09 1.273241e-09 1.829614e-09 -1.137257e-09 -1.912406e-10
-9.543601e-10 6.959677e-10 1.185498e-10 1.835332e-10 2.781886e-11 -1.320766e-11
-2.132318e-09 3.313749e-09 -3.918511e-09 1.772278e-10 -6.620646e-10 7.420204e-10
-2.127379e-09 -2.865779e-09 9.825816e-10 1.902835e-09 4.078208e-10 -1.173448e-10
-2.729889e-09 -2.190082e-09 1.117842e-09 1.504261e-09 2.139501e-10 -1.192280e-10
-2.724994e-09 -1.832548e-09 9.481116e-10 1.575686e-09 3.751399e-10 -1.346964e-10
-3.044198e-09 -2.281634e-09 1.126854e-09 2.081174e-09 6.075267e-10 -6.061846e-11
-2.070389e-09 -2.092129e-09 4.963123e-10 2.465252e-09 7.458100e-10 -1.369542e-10
-3.335261e-10 6.696581e-10 -1.057190e-10 -4.923963e-10 -4.905010e-11 -4.880651e-11
-4.824869e-10 7.566228e-10 -6.691214e-11 -3.206698e-10 -4.095901e-11 -2.260914e-11
-5.124452e-10 7.087906e-10 -7.111245e-11 -2.091193e-10 1.348706e-11 -6.658230e-12
-3.408961e-10 5.878840e-10 -9.184564e-11 -3.012558e-10 -6.227642e-11 -2.731987e-11
-3.086535e-10 5.974021e-10 -1.047784e-10 -5.013709e-10 -1.004929e-11 -6.787060e-11
-3.896723e-10 6.762164e-10 -7.644285e-11 -3.017311e-10 -6.401546e-13 -6.434675e-11
-4.070828e-09 3.540830e-10 4.455822e-10 -1.931697e-09 -1.618786e-09 -4.286633e-10
-4.211937e-09 1.837287e-09 -2.779301e-10 -1.280197e-09 -1.113020e-09 -3.163929e-10
-3.777664e-09 -5.595275e-10 2.621654e-10 -1.787031e-09 -1.625889e-09 -5.413299e-10
-3.843700e-09 3.516707e-10 -7.294632e-11 -1.909713e-09 -1.562644e-09 -3.598324e-10
-4.121201e-09 1.015247e-09 -5.521354e-10 -2.001631e-09 -1.591302e-09 -6.818607e-10
1.441037e-08 -4.778506e-09 -1.328641e-09 1.734423e-10 2.208216e-10 9.687075e-10
1.441589e-08 -4.836031e-09 8.461321e-11 1.341235e-10 1.915070e-10 7.335827e-10
4.836968e-09 1.658650e-09 -1.275656e-09 2.599017e-10 8.530107e-10 2.515272e-10
1.619304e-08 -4.822223e-09 -1.702068e-09 -7.611623e-11 -1.863982e-10 2.331662e-09
1.553624e-08 -3.094173e-09 -2.360218e-09 1.776646e-09 8.422202e-10 2.889401e-09
1.370656e-08 -2.987200e-09 -6.756684e-10 -4.072753e-11 1.287003e-10 8.541207e-10
1.259919e-08 -3.545599e-09 -9.872747e-10 1.191203e-09 -9.475307e-12 1.183994e-09
-3.190024e-09 -1.166614e-09 7.493199e-10 6.496470e-10 5.731565e-10 -2.485234e-10
-2.819883e-09 -1.157344e-09 1.716116e-10 1.226458e-09 4.433303e-10 -2.766372e-10
-2.770844e-09 -1.091810e-09 8.075987e-10 1.435035e-09 8.300911e-10 -5.182016e-11
-4.782548e-09 5.154334e-09 -2.209956e-10 1.700537e-09 2.676610e-10 6.812342e-10
-2.167971e-09 -2.846098e-09 8.492935e-10 1.604997e-09 5.155033e-10 -1.934012e-10
-2.725140e-09 -2.140938e-09 9.738650e-10 7.739711e-10 4.960543e-10 6.220313e-11
-1.153041e-09 6.579439e-10 1.472715e-10 1.550635e-10 2.832934e-11 4.584821e-11
-1.214850e-09 7.260841e-10 1.501026e-10 1.231770e-10 1.762746e-11 -7.612799e-13
-8.601457e-10 4.983143e-10 1.164886e-10 8.443557e-11 4.490275e-11 -6.841772e-11
-1.350954e-09 7.461960e-10 1.524221e-10 7.885736e-11 3.589840e-11 -3.803075e-11
-1.071910e-09 6.473204e-10 1.533014e-10 1.729070e-10 2.109668e-11 -5.526402e-11
-1.151802e-09 6.767380e-10 1.689635e-10 2.064853e-10 4.264721e-11 -2.682010e-11
-1.945398e-09 5.998958e-09 -4.093646e-09 -5.711014e-09 9.797161e-10 1.359346e-09
-1.503505e-09 6.739493e-09 1.412577e-09 -6.328865e-09 8.535988e-10 7.123493e-10
-4.461372e-10 4.770996e-09 1.740069e-09 -6.330941e-09 1.016772e-09 1.978852e-10
-3.328289e-10 7.228627e-10 -5.541168e-11 -1.085028e-09 6.068035e-12 3.358147e-11
9.204062e-10 3.549936e-09 1.381830e-09 -7.072709e-09 1.022396e-09 1.782943e-11
-1.157218e-09 4.803043e-09 1.067183e-09 -6.598457e-09 9.420669e-10 7.444128e-10
1.933531e-09 -9.733538e-10 -3.178993e-10 -2.040919e-10 -3.536860e-11 3.450573e-12
2.060524e-09 -1.067908e-09 -3.146869e-10 -2.004845e-10 -1.201156e-11 3.635159e-11
1.727207e-09 -8.916677e-10 -2.976633e-10 -3.785965e-10 -1.728928e-11 -4.404233e-11
2.116940e-09 -1.103047e-09 -3.312470e-10 -2.925731e-10 -1.233155e-11 -2.914492e-12
2.048233e-09 -8.851830e-10 -3.220254e-10 -4.163119e-10 -5.725642e-11 2.020650e-11
2.003234e-09 -1.090564e-09 -3.059756e-10 -2.538249e-10 -4.739906e-11 1.914255e-11
-2.238213e-09 1.283408e-09 -3.475673e-10 -6.390278e-10 -7.261613e-11 -9.415202e-11
-2.154478e-09 9.185763e-10 3.040812e-11 -5.148253e-10 -3.616440e-11 -7.867595e-11
-2.189191e-09 1.188691e-09 -1.309717e-10 -7.088525e-10 -1.969367e-10 8.085088e-12
-2.170824e-09 8.990462e-10 9.821921e-11 -5.366343e-10 -2.924549e-11 -4.723055e-11
2.209668e-09 -1.169976e-09 -3.326415e-10 4.586574e-11 8.551715e-12 3.771872e-12
2.181357e-09 -1.182082e-09 -3.231297e-10 8.996064e-11 7.145534e-12 4.466894e-11
2.040581e-09 -1.143491e-09 -3.231992e-10 2.106096e-10 -1.772596e-12 -1.642708e-11
2.321813e-09 -1.258574e-09 -3.460228e-10 2.498221e-10 1.648986e-12 -4.044259e-11
2.347244e-09 -1.292999e-09 -3.299443e-10 1.132279e-10 3.940480e-11 2.916867e-11
2.239704e-09 -1.200705e-09 -3.362324e-10 4.279883e-11 -1.141672e-11 3.384626e-11
2.181606e-09 -1.193442e-09 -3.291261e-10 -1.245282e-11 9.096321e-12 2.546252e-11
2.234902e-09 -1.243283e-09 -3.351742e-10 3.875084e-11 2.487058e-11 1.765253e-14
2.477929e-09 -1.244117e-09 -3.235101e-10 2.741701e-11 2.096874e-11 6.474987e-11
-8.648237e-10 6.896363e-09 -8.579777e-09 -9.733644e-11 -9.805799e-10 6.515869e-10
-8.778240e-10 5.518919e-10 1.227707e-10 1.278175e-10 -5.597967e-12 1.518663e-11
-9.424239e-10 5.568461e-10 1.304459e-10 3.064313e-10 3.815859e-11 -4.905631e-11
-9.027445e-10 5.131806e-10 1.013616e-10 2.968834e-10 1.663113e-13 -7.023981e-11
-9.956063e-10 5.849756e-10 1.282801e-10 1.765552e-10 6.075140e-13 -6.029377e-11
-1.124169e-09 6.316645e-10 1.231997e-10 2.377201e-10 2.529377e-11 -1.873479e-11
-1.065972e-09 6.390803e-10 1.421412e-10 2.090232e-10 3.221672e-11 -2.097708e-11
1.164893e-09 -1.914894e-09 -5.883492e-09 -5.150832e-09 1.102965e-09 3.035546e-10
-1.904853e-09 1.709037e-09 -2.938154e-09 -4.521061e-09 1.180050e-09 8.355660e-10
-3.906794e-09 2.614229e-09 -1.523982e-09 -1.936854e-09 5.809686e-11 9.030432e-11
-1.848578e-09 -1.935883e-10 -2.959716e-09 -4.530643e-09 9.041519e-10 8.664076e-10
2.414163e-10 -1.501840e-09 -4.147012e-09 -5.028218e-09 2.228999e-10 -3.224517e-10
-1.101938e-09 -5.130376e-10 -3.239027e-09 -4.722923e-09 1.050622e-09 8.848486e-10
2.921497e-09 -6.916304e-09 -2.477915e-09 -2.578306e-09 -1.539363e-09 -2.068750e-10
1.947418e-09 -6.901670e-09 -1.410150e-09 -1.722256e-09 -1.265865e-09 -2.735172e-10
1.987015e-09 -6.002926e-09 -2.387822e-09 -1.999913e-09 -1.375032e-09 -2.586719e-11
2.285667e-09 -5.390025e-09 -3.874407e-09 -3.077375e-09 -1.040059e-09 -4.342753e-10
1.991245e-09 -5.984983e-09 -1.213050e-09 -1.991005e-09 -6.214349e-10 2.714238e-10
1.251848e-09 -5.684410e-09 -1.954758e-09 -2.066147e-09 -7.478025e-10 -4.732770e-10
1.301910e-10 3.734062e-10 -1.504050e-10 -6.117258e-10 -8.859402e-11 -4.691025e-11
1.140670e-10 3.235119e-10 -1.256788e-10 -3.759637e-10 1.399325e-12 -2.364331e-11
3.873919e-10 2.661107e-10 -1.596927e-10 -4.878420e-10 -1.489031e-11 5.569600e-12
4.025471e-10 1.432356e-10 -1.854139e-10 -5.681767e-10 -7.207168e-11 -3.957409e-11
-3.527765e-09 -3.585754e-10 -1.306580e-09 -1.871063e-09 -1.076890e-09 -5.673216e-10
-3.692582e-09 9.222254e-10 -1.712102e-09 -1.821409e-09 -1.081065e-09 -2.514350e-10
-3.740397e-09 3.394112e-10 -7.798255e-10 -1.285257e-09 -5.111251e-10 -2.890479e-10
-2.970228e-09 -1.643201e-10 -1.273900e-09 -2.125538e-09 -4.209966e-12 9.993850e-11
-6.358598e-10 8.977441e-10 -6.318368e-11 -9.553136e-11 -2.195422e-11 -1.439465e-11
-5.727121e-10 7.714576e-10 -6.586109e-11 -2.802187e-10 -5.507750e-11 -6.930290e-12
-6.064860e-10 8.989467e-10 -7.150414e-11 -1.718410e-10 -2.312334e-11 -3.148010e-11
-2.069052e-09 3.758154e-09 -7.194511e-09 -3.864473e-09 -5.481531e-10 -3.614284e-10
-7.899885e-10 9.245964e-10 -6.329071e-11 -1.976619e-10 -1.892064e-11 -4.155765e-11
8.396934e-10 -5.181223e-09 1.244962e-09 -1.339587e-09 1.878703e-10 -8.411299e-11
1.510260e-09 -6.860178e-09 1.242519e-09 -1.256856e-09 -3.644029e-11 -9.305889e-12
9.450349e-10 -5.462671e-09 9.254757e-10 -1.532742e-09 3.721295e-10 -6.381618e-12
1.502073e-09 -5.768777e-09 9.021730e-10 -1.548433e-09 5.948908e-11 -4.386921e-11
1.493851e-09 -6.249594e-09 1.087873e-09 -1.427633e-09 2.358080e-10 -1.373590e-11
1.041588e-09 -5.017582e-10 -1.977360e-10 4.091043e-10 2.321210e-11 1.245919e-10
-2.721220e-09 -2.762510e-09 6.154770e-10 -1.520525e-09 -7.764154e-10 -2.992213e-10
-1.646774e-09 -2.275874e-09 1.032736e-09 -2.163521e-09 -2.009888e-10 -3.098548e-10
-1.676913e-09 -3.020642e-09 5.098495e-10 -1.322532e-09 -4.238050e-10 -2.912703e-10
-2.513982e-09 -1.868453e-09 1.071210e-09 -1.068538e-09 -6.962835e-10 5.389156e-11
-2.589426e-09 -2.854930e-09 9.901271e-10 -1.602448e-09 -9.004813e-10 -7.658840e-11
-1.637545e-09 -4.638673e-09 -1.303944e-10 -1.901867e-09 -1.580473e-09 -4.908075e-10
-8.759908e-10 4.794880e-10 7.578804e-11 1.144151e-10 5.274114e-11 2.567480e-11
-1.751405e-09 1.547726e-09 -3.442575e-10 -1.591258e-09 -3.305045e-11 -1.566420e-10
-1.534636e-09 1.803016e-09 -4.552891e-10 -2.071760e-09 -3.014038e-10 1.866858e-10
-2.167249e-09 1.503996e-09 -4.814331e-10 -1.131038e-09 -1.731628e-10 8.747536e-11
-1.679530e-09 1.674740e-09 -4.995400e-10 -1.460839e-09 -7.546896e-11 -9.767076e-11
-1.798004e-09 2.070878e-09 -5.749792e-10 -1.917649e-09 -2.389684e-10 3.135723e-10
-2.942917e-08 -1.451844e-08 6.895387e-08 -1.109233e-09 -1.471948e-09 -4.512972e-10
-2.272817e-08 -7.606466e-09 5.899088e-08 -6.366281e-09 -8.163499e-09 1.918087e-09
-2.885234e-08 -1.547937e-08 6.794866e-08 1.350917e-09 -1.867779e-10 -1.526564e-09
-2.684789e-08 -6.982636e-09 8.745377e-08 3.878630e-09 -8.862846e-09 -6.299192e-09
-2.678259e-08 -1.282259e-08 7.143596e-08 -1.262395e-09 -3.364727e-09 1.202799e-09
-4.611529e-09 3.373229e-09 -7.665926e-10 2.060302e-09 1.552902e-09 -7.851441e-10
-4.652058e-09 3.334595e-09 -7.481953e-10 2.020354e-09 1.532465e-09 -8.110454e-10
-5.214521e-09 3.812878e-09 -1.227314e-09 4.370220e-09 2.018608e-09 -1.698319e-09
4.929657e-11 1.151523e-12 -7.842615e-12 4.760266e-10 7.592593e-11 -3.196110e-12
-5.166682e-09 5.511239e-09 -2.559351e-09 3.472529e-09 2.227167e-09 -2.569634e-09
-4.300599e-09 3.842851e-09 -6.335172e-10 1.363549e-09 1.272643e-09 -3.802906e-10
-3.784660e-09 5.429301e-09 -1.909608e-09 6.705829e-10 1.496066e-09 -1.165718e-09
1.413621e-09 -6.117241e-10 -2.061711e-10 8.786618e-10 -1.656387e-11 1.479538e-11
1.532439e-09 -7.773528e-10 -2.227782e-10 8.222045e-10 -3.721312e-11 -6.213119e-11
1.338079e-09 -6.128991e-10 -2.002603e-10 6.335252e-10 -2.837353e-11 -7.435608e-12
1.074071e-09 -4.998911e-10 -1.603939e-10 7.539730e-10 -1.266405e-11 4.736211e-12
4.171905e-10 -5.181493e-09 -6.019585e-10 1.023814e-09 -3.980414e-10 1.520642e-10
-5.649161e-10 -2.974781e-09 -6.939554e-10 1.298935e-09 -2.136571e-10 2.087216e-10
3.477292e-10 -3.709592e-09 -4.029657e-10 9.547024e-10 -2.858602e-10 -5.602130e-12
-4.238304e-09 7.534767e-09 -3.710682e-09 -3.337068e-09 1.682569e-09 1.672251e-09
-5.440683e-10 -2.772874e-09 -1.887298e-09 1.860761e-09 -8.051790e-10 2.922717e-10
-5.271985e-10 -2.705911e-09 -1.170145e-09 1.794317e-09 -1.066429e-09 6.732452e-10
3.980563e-10 -3.992920e-09 -9.428667e-10 1.123217e-09 1.114460e-10 -1.909646e-10
9.589229e-10 -4.476706e-09 -7.687807e-10 1.625100e-09 -8.271979e-10 6.183582e-10
4.083203e-10 -5.650833e-09 -7.238699e-11 1.784902e-09 -1.094922e-09 6.360285e-10
6.083767e-10 -4.297643e-09 -9.903642e-10 1.854246e-09 -1.104652e-09 2.101239e-10
-1.616984e-09 6.687433e-10 3.030407e-10 1.517814e-10 1.336176e-11 1.025527e-12
-1.622210e-09 6.918111e-10 2.909244e-10 1.910068e-10 2.418976e-11 -4.772224e-11
-1.624359e-09 6.349787e-10 2.995044e-10 7.730100e-11 1.658909e-11 -1.642614e-11
1.074662e-09 -4.998703e-10 -1.774429e-10 7.541045e-10 1.963156e-11 1.010081e-10
8.798056e-10 -3.977694e-10 -1.545191e-10 5.785284e-10 2.998912e-11 -1.045388e-10
9.216272e-10 -3.749374e-10 -1.358185e-10 8.519252e-10 5.294831e-11 1.037499e-10
1.809171e-09 -8.154983e-10 -3.176153e-10 -4.726335e-10 -1.731437e-11 1.360267e-11
1.790530e-09 -8.737641e-10 -3.036571e-10 -5.088963e-10 -6.371606e-11 -1.134426e-12
2.143471e-09 -9.740235e-10 -3.273954e-10 -5.556547e-10 -3.399647e-11 4.205899e-11
1.820664e-09 -7.761281e-10 -3.326397e-10 -5.009724e-10 3.117062e-11 4.498679e-12
1.958444e-09 -9.367374e-10 -3.192961e-10 -2.323449e-10 8.342105e-12 -6.154255e-11
2.206935e-09 -1.075574e-09 -3.424481e-10 -2.691114e-10 -7.253365e-12 4.151368e-11
2.145122e-09 -1.134766e-09 -3.355476e-10 -3.413417e-10 2.227551e-12 -8.162138e-12
6.411553e-09 2.699452e-11 4.396660e-09 7.436033e-09 3.383753e-10 3.033581e-09
7.164267e-09 -4.720749e-09 1.940712e-08 8.560998e-09 2.252146e-09 2.682554e-09
9.127273e-09 -4.725381e-09 6.922898e-09 6.842682e-09 1.732927e-09 2.062962e-09
7.416674e-09 -2.142106e-09 9.019243e-09 7.167878e-09 1.296726e-09 3.744579e-09
2.426040e-09 -1.049988e-09 -4.061409e-10 -6.529117e-10 2.018141e-11 6.310286e-11
1.826763e-09 -8.714983e-10 -3.103722e-10 -8.034096e-10 1.244904e-11 7.942003e-11
2.273400e-09 -1.090448e-09 -3.804836e-10 -7.966762e-10 1.759815e-11 -4.225309e-11
1.985295e-09 -8.838938e-10 -3.224421e-10 -6.686957e-10 2.476974e-11 -3.743161e-11
-2.765715e-09 -8.703642e-10 -1.337376e-09 -2.316311e-09 -5.973482e-10 -1.841546e-10