# vtk DataFile Version 2.0
Simplicial Mesh Example
ASCII
DATASET UNSTRUCTURED_GRID
POINTS 9490 double
4.132646e+04 -3.761110e+05 -2.495947e+04
1.739130e+04 -4.000000e+05 0.000000e+00
1.424943e+04 -3.757412e+05 -2.497841e+04
3.478261e+04 -4.000000e+05 -2.478841e+04
3.431474e+04 -3.668361e+05 0.000000e+00
6.536071e+04 -3.800007e+05 -2.495579e+04
5.217391e+04 -4.000000e+05 0.000000e+00
5.217391e+04 -4.000000e+05 -5.000000e+04
6.848295e+04 -3.663208e+05 -5.000000e+04
1.739130e+04 -4.000000e+05 -5.000000e+04
3.422046e+04 -3.663210e+05 -5.000000e+04
-4.000000e+05 1.043476e+05 -2.478869e+04
-3.778006e+05 1.290431e+05 -2.559237e+04
-3.668348e+05 1.033122e+05 0.000000e+00
-3.750401e+05 1.075547e+05 -3.181274e+04
4.000000e+05 -3.652174e+05 -2.500000e+04
3.692598e+05 -3.333058e+05 -2.499312e+04
3.776504e+05 -3.747415e+05 -2.247043e+04
3.693733e+05 -3.529960e+05 0.000000e+00
-4.000000e+05 8.695652e+04 0.000000e+00
-3.760516e+05 8.212939e+04 -2.543564e+04
-3.482879e+05 1.253124e+05 -2.574623e+04
-3.665651e+05 9.874016e+04 -5.000000e+04
-3.495547e+05 9.060720e+04 -2.563270e+04
-3.071185e+05 -3.486990e+05 -2.261025e+04
-3.153762e+05 -3.243183e+05 -5.000000e+04
-3.287827e+05 -3.355430e+05 -2.504110e+04
-3.095113e+05 -3.153966e+05 -2.507638e+04
-2.962358e+05 -3.323448e+05 0.000000e+00
-3.357456e+05 -3.422369e+05 0.000000e+00
-2.772919e+05 -3.669732e+05 0.000000e+00
-2.934123e+05 -3.742563e+05 -2.511903e+04
-2.806419e+05 -3.463229e+05 -2.661752e+04
-3.140042e+05 -3.607419e+05 -5.000000e+04
-3.320497e+05 -3.703516e+05 -2.524928e+04
-3.224905e+05 6.841821e+04 -2.756000e+04
-3.000000e+05 4.234958e+04 -2.422604e+04
-3.000000e+05 5.362570e+04 -5.000000e+04
-3.000000e+05 7.749820e+04 -2.479801e+04
3.227610e+05 -1.685566e+05 -2.697912e+04
3.499303e+05 -1.919500e+05 -2.498446e+04
3.500600e+05 -1.567367e+05 -2.546429e+04
3.335574e+05 -1.858748e+05 0.000000e+00
3.000000e+05 -1.659466e+05 0.000000e+00
3.208602e+05 -1.947095e+05 -2.232217e+04
3.000000e+05 -1.806737e+05 -2.506219e+04
3.330650e+05 -1.842018e+05 -5.000000e+04
3.000000e+05 -1.978940e+05 -5.000000e+04
3.000000e+05 -1.638587e+05 -5.000000e+04
-1.949782e+05 -3.787045e+05 -2.503133e+04
-1.713812e+05 -3.663209e+05 -5.000000e+04
-1.725141e+05 -3.772415e+05 -2.530126e+04
-1.913043e+05 -4.000000e+05 -5.000000e+04
-1.972219e+05 -3.510331e+05 -2.499278e+04
-1.739069e+05 -4.000000e+05 -2.478809e+04
-1.716829e+05 -3.668361e+05 0.000000e+00
-1.913043e+05 -4.000000e+05 0.000000e+00
1.358880e+05 -3.243044e+05 -2.504137e+04
1.166322e+05 -3.000000e+05 -2.516475e+04
1.497984e+05 -3.000000e+05 -2.516553e+04
1.333333e+05 -3.000000e+05 -5.000000e+04
1.825802e+05 3.751615e+05 -2.720292e+04
2.119132e+05 3.796036e+05 -2.524922e+04
2.061857e+05 3.668333e+05 0.000000e+00
1.947422e+05 3.503722e+05 -2.524152e+04
1.565217e+05 4.000000e+05 0.000000e+00
1.528807e+05 3.759790e+05 -2.499953e+04
1.739069e+05 4.000000e+05 -2.478809e+04
1.716839e+05 3.668365e+05 0.000000e+00
1.913043e+05 4.000000e+05 0.000000e+00
1.565217e+05 4.000000e+05 -5.000000e+04
1.713714e+05 3.663108e+05 -5.000000e+04
1.613560e+05 3.500277e+05 -2.506640e+04
-8.982230e+04 3.792244e+05 -2.494679e+04
-6.535746e+04 3.800015e+05 -2.495585e+04
-6.848071e+04 3.663195e+05 -5.000000e+04
-8.695652e+04 4.000000e+05 -5.000000e+04
-6.956522e+04 4.000000e+05 -2.478801e+04
-9.132937e+04 3.518806e+05 -2.497956e+04
-8.695652e+04 4.000000e+05 0.000000e+00
-6.863978e+04 3.668364e+05 0.000000e+00
8.983161e+04 -3.792230e+05 -2.494676e+04
8.695652e+04 -4.000000e+05 -5.000000e+04
6.956522e+04 -4.000000e+05 -2.478801e+04
8.695652e+04 -4.000000e+05 0.000000e+00
9.134075e+04 -3.518804e+05 -2.497894e+04
6.864043e+04 -3.668360e+05 0.000000e+00
-1.485035e+05 -3.773486e+05 -2.721498e+04
-1.630495e+05 -3.485427e+05 -2.521974e+04
-1.185212e+05 -3.761066e+05 -2.504756e+04
-1.217391e+05 -4.000000e+05 -5.000000e+04
-1.370985e+05 -3.663236e+05 -5.000000e+04
-1.217391e+05 -4.000000e+05 0.000000e+00
-1.391294e+05 -4.000000e+05 -2.478846e+04
-1.373218e+05 -3.668365e+05 0.000000e+00
-1.565217e+05 -4.000000e+05 0.000000e+00
-1.276844e+05 -3.500075e+05 -2.505733e+04
-3.784905e+05 1.568709e+05 -2.476156e+04
-3.664298e+05 1.337587e+05 -5.000000e+04
-3.514457e+05 1.599418e+05 -2.483113e+04
-4.000000e+05 1.565217e+05 -5.000000e+04
-4.000000e+05 1.391294e+05 -2.478846e+04
-3.668349e+05 1.375908e+05 0.000000e+00
-4.000000e+05 1.565217e+05 0.000000e+00
3.668265e+05 -1.714683e+05 0.000000e+00
4.000000e+05 -1.913043e+05 0.000000e+00
4.000000e+05 -1.739069e+05 -2.478809e+04
4.000000e+05 -1.565217e+05 0.000000e+00
3.763528e+05 1.812702e+05 -2.493822e+04
4.000000e+05 1.565217e+05 0.000000e+00
3.764050e+05 1.528124e+05 -2.490916e+04
4.000000e+05 1.739130e+05 -2.478510e+04
3.668383e+05 1.722952e+05 0.000000e+00
3.797466e+05 2.119345e+05 -2.497186e+04
4.000000e+05 1.913043e+05 -5.000000e+04
3.662642e+05 2.068445e+05 -5.000000e+04
3.507120e+05 1.619053e+05 -2.490325e+04
3.662844e+05 1.729597e+05 -5.000000e+04
4.000000e+05 1.565217e+05 -5.000000e+04
3.776488e+05 -7.900637e+04 -2.735718e+04
3.762845e+05 -4.901174e+04 -2.508786e+04
3.663605e+05 -6.676216e+04 -5.000000e+04
3.502306e+05 -5.807827e+04 -2.511783e+04
4.000000e+05 -5.217391e+04 -5.000000e+04
3.773063e+05 -1.038824e+05 -2.578879e+04
4.000000e+05 -8.695652e+04 0.000000e+00
3.668372e+05 -1.026508e+05 0.000000e+00
4.000000e+05 -5.217391e+04 0.000000e+00
4.000000e+05 -6.956519e+04 -2.478879e+04
3.668380e+05 -6.826645e+04 0.000000e+00
4.000000e+05 -1.043476e+05 -2.478869e+04
-1.666667e+05 -3.000000e+05 -5.000000e+04
-1.833333e+05 -3.000000e+05 -2.518468e+04
-1.933582e+05 -3.216521e+05 -2.503520e+04
-1.657267e+05 -3.213415e+05 -2.506307e+04
-1.666667e+05 -3.000000e+05 0.000000e+00
3.334882e+05 -2.202831e+05 0.000000e+00
3.000000e+05 -1.994599e+05 0.000000e+00
3.000000e+05 -2.085861e+05 -2.501244e+04
-1.859359e+05 -3.331067e+05 -5.000000e+04
-1.862587e+05 -3.335758e+05 0.000000e+00
-4.132523e+04 3.761107e+05 -2.495957e+04
-3.478261e+04 4.000000e+05 -2.478841e+04
-5.217391e+04 4.000000e+05 -5.000000e+04
-1.739130e+04 4.000000e+05 -5.000000e+04
-1.424890e+04 3.757408e+05 -2.497844e+04
-3.421938e+04 3.663190e+05 -5.000000e+04
-5.217391e+04 4.000000e+05 0.000000e+00
-1.739130e+04 4.000000e+05 0.000000e+00
-3.431405e+04 3.668365e+05 0.000000e+00
-2.739007e+04 3.505180e+05 -2.498776e+04
-1.739130e+05 4.000000e+05 -2.478510e+04
-1.528672e+05 3.759826e+05 -2.500255e+04
-1.716148e+05 3.668263e+05 0.000000e+00
-1.825315e+05 3.751689e+05 -2.721318e+04
-1.913043e+05 4.000000e+05 0.000000e+00
-2.059314e+05 3.667832e+05 0.000000e+00
-2.118669e+05 3.796033e+05 -2.526514e+04
-1.612599e+05 3.500460e+05 -2.507149e+04
-1.913043e+05 4.000000e+05 -5.000000e+04
-2.056558e+05 3.663226e+05 -5.000000e+04
-1.712892e+05 3.663242e+05 -5.000000e+04
-1.565217e+05 4.000000e+05 -5.000000e+04
3.507710e+05 -3.071241e+05 -1.983709e+04
3.472371e+05 -2.783609e+05 -2.630278e+04
3.316724e+05 -2.967750e+05 0.000000e+00
3.666108e+05 -2.775848e+05 0.000000e+00
3.309559e+05 -3.255688e+05 -2.698212e+04
3.397681e+05 -3.369212e+05 0.000000e+00
3.744093e+05 -2.934608e+05 -2.492539e+04
3.303054e+05 -2.869393e+05 -5.000000e+04
3.606270e+05 -3.135064e+05 -5.000000e+04
-3.238506e+05 1.781151e+05 -2.284516e+04
-3.335738e+05 1.866432e+05 0.000000e+00
-3.000000e+05 1.673499e+05 0.000000e+00
-3.000000e+05 2.005124e+05 0.000000e+00
-3.242363e+05 2.019112e+05 -2.479758e+04
-3.335722e+05 1.528704e+05 0.000000e+00
-3.219833e+05 1.550144e+05 -2.418889e+04
-3.331119e+05 1.814444e+05 -5.000000e+04
-3.500623e+05 1.947691e+05 -2.492389e+04
3.000000e+05 -1.480457e+05 -2.518612e+04
3.070808e+05 3.546107e+05 -1.714572e+04
2.838715e+05 3.432764e+05 -2.626473e+04
2.962288e+05 3.323792e+05 0.000000e+00
2.772894e+05 3.669850e+05 0.000000e+00
3.214547e+05 3.369143e+05 -2.636251e+04
3.136723e+05 3.607135e+05 -5.000000e+04
2.935138e+05 3.747013e+05 -2.499119e+04
3.357389e+05 3.423035e+05 0.000000e+00
3.310854e+05 3.708053e+05 -2.520548e+04
-3.303425e+05 2.864208e+05 -5.000000e+04
-3.469504e+05 2.817468e+05 -2.677742e+04
-3.300427e+05 3.281790e+05 -2.631692e+04
-3.606526e+05 3.133330e+05 -5.000000e+04
-3.538099e+05 3.084519e+05 -1.787405e+04
-3.749470e+05 2.933940e+05 -2.493585e+04
-3.716865e+05 3.330494e+05 -2.604840e+04
-3.422611e+05 3.357632e+05 0.000000e+00
-3.323575e+05 2.962961e+05 0.000000e+00
-3.669772e+05 2.773495e+05 0.000000e+00
-3.208683e+05 1.285984e+05 -2.543766e+04
-3.000000e+05 1.341874e+05 0.000000e+00
-3.000000e+05 1.457374e+05 -2.479770e+04
-3.331557e+05 1.463574e+05 -5.000000e+04
-3.335717e+05 1.191216e+05 0.000000e+00
-3.000000e+05 1.116890e+05 -2.479816e+04
3.750985e+05 1.731082e+04 -2.495385e+04
3.668370e+05 3.487991e+04 0.000000e+00
3.766226e+05 5.120408e+04 -2.491509e+04
3.486553e+05 3.094323e+04 -2.470062e+04
3.664079e+05 2.208090e+03 -5.000000e+04
3.755591e+05 -1.521008e+04 -2.489784e+04
3.365423e+05 9.969610e+02 -2.491966e+04
3.668382e+05 4.985393e+02 0.000000e+00
4.000000e+05 8.858707e-04 -2.478866e+04
4.000000e+05 1.739130e+04 0.000000e+00
3.664904e+05 3.662308e+04 -5.000000e+04
4.000000e+05 1.739130e+04 -5.000000e+04
4.000000e+05 3.478261e+04 -2.478841e+04
3.241835e+05 -1.338846e+05 -2.511108e+04
3.331162e+05 -1.156285e+05 -5.000000e+04
3.331063e+05 -1.499070e+05 -5.000000e+04
3.000000e+05 -1.298234e+05 -5.000000e+04
3.000000e+05 -1.142814e+05 -2.518156e+04
3.501925e+05 -1.229656e+05 -2.536930e+04
3.335703e+05 -1.518628e+05 0.000000e+00
3.335746e+05 -1.178848e+05 0.000000e+00
3.000000e+05 -1.324332e+05 0.000000e+00
-1.185180e+05 -3.335740e+05 0.000000e+00
-1.333333e+05 -3.000000e+05 0.000000e+00
-1.000000e+05 -3.000000e+05 0.000000e+00
-1.166667e+05 -3.000000e+05 -2.516967e+04
3.767701e+05 8.545747e+04 -2.498937e+04
4.000000e+05 8.695652e+04 -5.000000e+04
3.664910e+05 7.093362e+04 -5.000000e+04
3.664147e+05 1.050627e+05 -5.000000e+04
4.000000e+05 8.695652e+04 0.000000e+00
3.668311e+05 6.925743e+04 0.000000e+00
4.000000e+05 6.956522e+04 -2.478801e+04
3.532003e+05 6.143720e+04 -2.460611e+04
3.529343e+05 9.380645e+04 -2.566405e+04
-6.874474e+04 -3.242435e+05 -2.504036e+04
[...]
POINT_DATA 9490
VECTORS displacement double
5.031540e-04 -5.717347e-05 4.913494e-05
5.079261e-04 0.000000e+00 5.886859e-05
5.151350e-04 -8.841242e-05 4.178445e-05
5.142413e-04 0.000000e+00 5.383618e-05
4.930212e-04 -7.439237e-05 4.966995e-05
4.800081e-04 -2.759785e-05 5.299735e-05
4.917073e-04 0.000000e+00 6.416516e-05
5.136348e-04 0.000000e+00 5.129144e-05
4.816502e-04 -4.300728e-05 4.361877e-05
5.407819e-04 0.000000e+00 4.596405e-05
5.238637e-04 -9.593301e-05 3.614037e-05
0.000000e+00 4.808457e-04 -1.414459e-04
-8.867130e-05 5.788189e-04 -1.222400e-04
-8.258116e-05 5.653623e-04 -1.658586e-04
-8.615822e-05 5.313698e-04 -1.511132e-04
0.000000e+00 3.812414e-05 -3.530419e-06
2.337224e-05 7.099800e-05 -5.249058e-06
2.152244e-05 2.801341e-05 -2.836440e-06
2.764101e-05 5.269607e-05 -3.834641e-06
0.000000e+00 4.531515e-04 -1.536596e-04
-5.043510e-05 4.656871e-04 -1.628456e-04
-2.088731e-04 7.381737e-04 -1.776303e-04
-1.141964e-04 4.953019e-04 -1.599617e-04
-1.463125e-04 6.513262e-04 -2.078312e-04
-2.764050e-04 -1.765230e-04 -5.172901e-06
-3.132294e-04 -2.440536e-04 -6.191353e-05
-2.441399e-04 -1.436118e-04 -6.942089e-06
-3.097264e-04 -2.862187e-04 -9.590616e-05
-2.810616e-04 -2.278248e-04 -4.582469e-05
-2.007955e-04 -7.519544e-05 2.306088e-05
-2.718944e-04 -1.546430e-04 1.451746e-05
-2.813242e-04 -1.132457e-04 2.501148e-05
-3.194540e-04 -2.916047e-04 -4.439420e-05
-2.779223e-04 -1.375260e-04 1.911322e-05
-2.165692e-04 -6.301430e-05 5.185675e-05
-1.592380e-04 8.818860e-04 -2.675539e-04
-8.336454e-06 1.122499e-03 -1.817229e-04
-1.447027e-04 9.146535e-04 -2.715804e-04
-3.621714e-04 1.332529e-03 -4.162258e-04
-9.206092e-05 1.348370e-04 -3.058557e-05
-4.427013e-05 1.362672e-04 -2.585506e-05
-6.732646e-05 1.221307e-04 -3.140953e-05
-6.407371e-05 1.417230e-04 -2.928809e-05
-1.233174e-04 1.447783e-04 -3.440927e-05
-6.443322e-05 1.433629e-04 -2.613716e-05
-1.022044e-04 1.460828e-04 -2.947962e-05
-6.509990e-05 1.357602e-04 -2.586505e-05
-7.844536e-05 1.479833e-04 -2.375311e-05
-1.267059e-04 1.380421e-04 -3.002427e-05
-1.286279e-04 -2.380168e-04 -4.818256e-05
-4.190820e-05 -4.204993e-04 -8.463231e-05
-3.798429e-05 -2.659753e-04 -5.332023e-05
-1.192888e-04 0.000000e+00 -2.875503e-05
-1.601711e-04 -5.582243e-04 -1.274185e-04
-4.106292e-05 0.000000e+00 -3.276000e-05
-3.522085e-05 -3.458162e-04 -6.259186e-05
-1.041479e-04 0.000000e+00 -8.769938e-06
2.974491e-04 4.602298e-05 2.562479e-05
2.792252e-04 3.352209e-05 1.226592e-05
2.230333e-04 7.932178e-05 1.356477e-05
2.577404e-04 5.777665e-05 1.200761e-05
3.826915e-04 -2.541008e-06 6.349477e-05
3.332183e-04 -7.353220e-06 5.413558e-05
3.467991e-04 -1.288088e-05 5.917618e-05
3.520579e-04 -1.200488e-05 5.773788e-05
4.387330e-04 0.000000e+00 7.916602e-05
4.322042e-04 6.733177e-06 7.511782e-05
4.019468e-04 0.000000e+00 6.709337e-05
4.072212e-04 -5.095655e-07 7.201474e-05
3.793045e-04 0.000000e+00 6.557063e-05
4.259289e-04 0.000000e+00 6.895274e-05
3.955991e-04 2.371002e-06 6.252349e-05
4.076430e-04 8.145824e-06 6.969277e-05
3.995832e-04 1.473270e-04 1.800433e-04
4.535027e-04 1.279590e-04 1.732312e-04
4.461731e-04 2.297911e-04 1.578894e-04
4.075593e-04 0.000000e+00 1.683727e-04
4.454874e-04 0.000000e+00 1.753167e-04
3.938163e-04 3.451501e-04 1.711100e-04
4.133360e-04 0.000000e+00 1.939333e-04
4.512450e-04 2.091383e-04 1.838514e-04
4.420716e-04 -1.014450e-05 5.143272e-05
4.634760e-04 0.000000e+00 4.998251e-05
4.775784e-04 0.000000e+00 5.557504e-05
4.515321e-04 0.000000e+00 6.135047e-05
4.200453e-04 -1.915067e-05 4.103997e-05
4.624396e-04 -2.921403e-05 5.365852e-05
7.042410e-05 -2.744635e-04 -5.568243e-05
-9.182069e-06 -6.420362e-04 -1.491993e-04
2.097797e-04 -2.788141e-04 -4.941387e-05
2.058763e-04 0.000000e+00 -2.684539e-05
1.289802e-04 -4.275263e-04 -8.177035e-05
1.849366e-04 0.000000e+00 -9.706133e-06
1.175139e-04 0.000000e+00 -2.926634e-05
1.152312e-04 -3.502026e-04 -5.709322e-05
3.880717e-05 0.000000e+00 -1.444770e-05
1.651369e-04 -6.154136e-04 -1.326293e-04
-8.327279e-05 6.220257e-04 -6.978574e-05
-1.525842e-04 6.103404e-04 -1.267815e-04
-1.912716e-04 7.401889e-04 -9.393828e-05
0.000000e+00 5.852605e-04 -5.948370e-05
0.000000e+00 5.644003e-04 -9.525468e-05
-1.072876e-04 6.040887e-04 -1.111186e-04
0.000000e+00 5.555548e-04 -5.591490e-05
-3.718414e-05 1.296493e-04 -3.086279e-05
0.000000e+00 1.341349e-04 -2.738954e-05
0.000000e+00 1.254451e-04 -2.862459e-05
0.000000e+00 1.201410e-04 -3.297918e-05
3.501326e-06 -1.556367e-04 -6.062601e-07
0.000000e+00 -1.624168e-04 -6.214326e-06
-5.073453e-06 -1.560978e-04 -7.119363e-06
0.000000e+00 -1.575500e-04 -2.306546e-06
1.675249e-06 -1.616052e-04 -2.682606e-06
1.023128e-05 -1.485424e-04 6.147390e-06
0.000000e+00 -1.510626e-04 1.258235e-06
1.609350e-05 -1.461744e-04 4.741564e-06
-5.677182e-06 -1.557988e-04 -4.788261e-06
8.079368e-07 -1.528129e-04 -2.251097e-06
0.000000e+00 -1.534710e-04 -6.414411e-06
-4.572233e-05 4.934415e-05 -3.772612e-05
-5.088722e-05 1.374229e-05 -3.837817e-05
-7.094440e-05 3.581775e-05 -3.569594e-05
-1.070856e-04 2.712469e-05 -3.968314e-05
0.000000e+00 1.712095e-05 -3.538528e-05
-4.282060e-05 7.605609e-05 -3.639364e-05
0.000000e+00 5.866352e-05 -3.969273e-05
-6.343409e-05 7.754472e-05 -3.940394e-05
0.000000e+00 1.685336e-05 -4.066651e-05
0.000000e+00 3.773944e-05 -3.780580e-05
-7.032611e-05 3.802395e-05 -4.112301e-05
0.000000e+00 7.631652e-05 -3.631017e-05
-7.881563e-05 -1.430428e-03 -4.935213e-04
-1.676099e-04 -1.378787e-03 -4.927339e-04
-1.832429e-04 -9.661544e-04 -2.990411e-04
-4.380030e-05 -1.046822e-03 -3.203834e-04
-6.428011e-05 -1.267102e-03 -4.727651e-04
-3.140982e-05 1.443657e-04 -2.255707e-05
-7.570514e-05 1.543438e-04 -2.700106e-05
-6.169134e-05 1.502731e-04 -2.334382e-05
-1.443611e-04 -8.436282e-04 -2.256679e-04
-1.193595e-04 -7.044838e-04 -2.005219e-04
4.943419e-04 1.361457e-04 1.638540e-04
5.061156e-04 0.000000e+00 1.627969e-04
4.770247e-04 0.000000e+00 1.575287e-04
5.242416e-04 0.000000e+00 1.442729e-04
5.265948e-04 1.190818e-04 1.527312e-04
5.036215e-04 1.929772e-04 1.472751e-04
4.838779e-04 0.000000e+00 1.821121e-04
5.334634e-04 0.000000e+00 1.682176e-04
5.102554e-04 1.753284e-04 1.703001e-04
5.097590e-04 2.598782e-04 1.511129e-04
1.814227e-04 0.000000e+00 1.997345e-04
2.350688e-04 1.909380e-04 1.931559e-04
1.854489e-04 2.528000e-04 2.080978e-04
1.549335e-04 1.962894e-04 1.963324e-04
1.414144e-04 0.000000e+00 2.171686e-04
9.832373e-05 2.433894e-04 2.119921e-04
8.520347e-05 1.548849e-04 2.019282e-04
2.017918e-04 4.017208e-04 1.824474e-04
1.351250e-04 0.000000e+00 1.878370e-04
9.205744e-05 2.690559e-04 1.825835e-04
1.794570e-04 2.795283e-04 1.783291e-04
2.259276e-04 0.000000e+00 1.832283e-04
2.791496e-05 9.611855e-05 -7.483782e-06
1.464495e-05 1.167597e-04 -1.119398e-05
3.506647e-05 1.093962e-04 -8.248607e-06
8.736882e-06 1.187590e-04 -1.286589e-05
5.060058e-05 8.062529e-05 -4.077025e-06
4.965008e-05 7.120992e-05 -3.851166e-06
1.087604e-05 1.043259e-04 -9.850738e-06
2.532027e-05 1.112408e-04 -8.400850e-06
2.385484e-05 8.782445e-05 -6.482985e-06
-2.656627e-04 9.149079e-04 -9.491501e-05
-1.917995e-04 7.750249e-04 -4.039905e-05
-2.895294e-04 1.095874e-03 -1.814173e-04
-2.362854e-04 9.676776e-04 -5.373288e-05
-2.258962e-04 8.523888e-04 -2.228652e-05
-2.144833e-04 8.258917e-04 -1.386639e-04
-3.137011e-04 9.771897e-04 -1.777354e-04
-2.617118e-04 8.541153e-04 -7.218247e-05
-1.665081e-04 7.263920e-04 -9.770044e-06
-1.464224e-04 1.306503e-04 -3.531623e-05
1.581013e-04 -4.033879e-05 3.288667e-05
1.936665e-04 -4.604203e-05 3.487490e-05
1.717480e-04 -5.981741e-05 3.423779e-05
2.176508e-04 -2.734417e-05 4.056935e-05
1.275904e-04 -5.705080e-05 2.875694e-05
1.460082e-04 -3.443794e-05 2.912177e-05
1.859706e-04 -2.151763e-05 3.519575e-05
1.074541e-04 -5.567227e-05 3.012856e-05
1.192853e-04 -2.740484e-05 3.018369e-05
-1.037667e-04 5.572615e-04 1.357424e-04
-8.394492e-05 5.148520e-04 1.470138e-04
-5.810297e-05 3.542598e-04 1.880764e-04
-4.775453e-05 3.919566e-04 1.659668e-04
-5.212199e-05 3.991671e-04 1.783180e-04
-3.566264e-05 4.346091e-04 1.636757e-04
-2.698329e-05 2.892749e-04 1.914865e-04
-4.552249e-05 2.907288e-04 2.078633e-04
-7.530284e-05 4.627616e-04 1.751192e-04
-5.341871e-05 4.666528e-04 1.590531e-04
-3.312222e-04 1.018617e-03 -2.606590e-04
-3.271118e-04 1.235666e-03 -3.207902e-04
-4.058050e-04 1.246807e-03 -2.907633e-04
-3.028249e-04 8.591906e-04 -1.637224e-04
-2.056621e-04 8.498951e-04 -2.229384e-04
-4.383752e-04 1.335560e-03 -4.078898e-04
-4.770751e-05 -6.655451e-05 -3.378758e-05
-5.958034e-05 -8.888212e-05 -3.365317e-05
-3.808007e-05 -1.016911e-04 -2.876648e-05
-9.400723e-05 -8.112312e-05 -3.298918e-05
-6.891001e-05 -4.730107e-05 -3.316792e-05
-5.183217e-05 -2.793411e-05 -3.701631e-05
-1.305447e-04 -4.588825e-05 -3.742686e-05
-6.853217e-05 -4.904285e-05 -3.829226e-05
0.000000e+00 -4.676593e-05 -3.536272e-05
0.000000e+00 -6.973358e-05 -3.569949e-05
-5.979085e-05 -8.521422e-05 -2.907399e-05
0.000000e+00 -6.522532e-05 -3.109557e-05
0.000000e+00 -8.546386e-05 -3.111407e-05
-1.230191e-04 1.128953e-04 -3.593208e-05
-1.214485e-04 9.369533e-05 -3.451485e-05
-9.558391e-05 1.204025e-04 -3.104110e-05
-1.705888e-04 1.159464e-04 -3.519997e-05
-1.862168e-04 1.019626e-04 -3.978201e-05
-8.642117e-05 9.751608e-05 -3.567224e-05
-9.406282e-05 1.258621e-04 -3.522777e-05
-1.198747e-04 9.835960e-05 -3.989414e-05
-1.685475e-04 1.216489e-04 -4.027115e-05
1.832888e-04 -7.189698e-04 -1.807060e-04
1.010280e-04 -1.260590e-03 -4.566274e-04
2.545861e-04 -1.132880e-03 -3.889156e-04
2.249163e-04 -1.361435e-03 -4.526589e-04
-2.787292e-05 -1.298460e-04 -2.223445e-05
0.000000e+00 -1.280078e-04 -2.034811e-05
-4.674897e-05 -1.161549e-04 -2.355644e-05
-3.188949e-05 -1.382709e-04 -1.687507e-05
0.000000e+00 -1.356060e-04 -2.323081e-05
-4.742579e-05 -1.217082e-04 -2.715023e-05
0.000000e+00 -1.178290e-04 -2.519350e-05
-7.180050e-05 -1.104144e-04 -2.750072e-05
-5.152158e-05 -1.349473e-04 -2.066818e-05
4.143631e-04 -7.494272e-04 -1.818898e-04
4.726757e-04 -1.019914e-03 -3.035897e-04
3.862735e-04 -7.408044e-04 -1.648778e-04
3.777291e-04 -1.153686e-03 -3.651598e-04
4.880019e-04 -5.788452e-04 -1.091249e-04
4.838203e-04 -5.497065e-04 -1.117740e-04
4.283773e-04 -4.435460e-04 -6.398423e-05
4.650675e-04 -8.763274e-04 -2.565559e-04
3.586206e-04 -9.123092e-04 -2.917698e-04
3.163954e-04 -6.250734e-04 -1.398423e-04
4.095738e-04 -4.898001e-04 -8.876279e-05
5.377756e-04 -1.696571e-04 1.775068e-05
4.681607e-04 -7.732109e-05 3.503941e-05
4.932049e-04 -1.336552e-04 3.695165e-05
1.606324e-04 6.173767e-04 1.581747e-04
2.001370e-04 8.343356e-04 1.190946e-04
2.211496e-04 5.105381e-04 1.832525e-04
1.490036e-04 7.884519e-04 1.367026e-04
1.263352e-04 5.039675e-04 1.886046e-04
2.169199e-04 5.638538e-04 1.527580e-04
1.431235e-04 8.711531e-04 1.082216e-04
7.199636e-05 5.918039e-04 1.639579e-04
1.123214e-04 3.898114e-04 1.872933e-04
1.173823e-04 5.566774e-04 1.573912e-04
2.608401e-04 6.107738e-04 1.535817e-04
2.552829e-04 8.560321e-04 1.055675e-04
3.177378e-04 5.413451e-04 1.483837e-04
3.055547e-04 7.988942e-04 1.179953e-04
2.979225e-04 3.902275e-04 1.772332e-04
3.185544e-04 4.911948e-04 1.776627e-04
2.527593e-04 7.771390e-04 1.331696e-04
3.081632e-05 3.647880e-04 -1.284739e-04
-1.417999e-05 3.581003e-04 -1.447252e-04
1.463565e-04 2.333321e-04 -6.325237e-05
0.000000e+00 2.524192e-04 -1.162903e-04
-7.746315e-06 5.306133e-04 -1.694147e-04
0.000000e+00 3.796976e-04 -1.461756e-04
-1.575395e-05 5.018547e-04 -1.689380e-04
0.000000e+00 3.854768e-04 -1.379138e-04
1.049249e-04 4.259511e-04 -1.030240e-04
1.690611e-05 -1.516604e-04 3.117969e-06
1.646608e-05 -1.545078e-04 5.819076e-06
0.000000e+00 -1.590362e-04 1.709407e-06
3.642213e-05 -1.392427e-04 1.039775e-05
0.000000e+00 -1.473294e-04 9.299788e-06
0.000000e+00 -1.486964e-04 5.335451e-06
0.000000e+00 -1.397866e-04 8.292571e-06
-6.438026e-05 7.372092e-05 -3.435452e-05
-9.972208e-05 6.549785e-05 -3.853480e-05
-1.061303e-04 -1.235240e-05 -3.891298e-05
-7.246334e-05 -5.989877e-06 -3.540448e-05
0.000000e+00 -4.355790e-06 -3.771513e-05
-3.353750e-04 -3.102725e-04 -3.272434e-04
-3.310079e-04 -2.079159e-04 -2.545798e-04
-5.075334e-04 -5.928847e-04 -5.030445e-04
-4.473666e-04 -6.275636e-04 -4.283239e-04
-7.188546e-05 -5.443355e-06 -4.079260e-05
5.299253e-04 2.319670e-04 1.172636e-04
5.404769e-04 2.338690e-04 1.373502e-04
5.184863e-04 3.655681e-04 1.107063e-04
5.181765e-04 2.927289e-04 1.149363e-04
5.180583e-04 3.185760e-04 9.800480e-05
5.272388e-04 1.805118e-04 1.057107e-04
5.060203e-04 2.536991e-04 1.017951e-04
5.352399e-04 1.648017e-04 1.226700e-04
5.102422e-04 1.544063e-04 1.039885e-04
5.306748e-04 1.176964e-04 1.143664e-04
5.413376e-04 1.661599e-04 1.285357e-04
4.488097e-04 -1.951862e-04 -2.740093e-06
4.238677e-04 -3.257351e-04 -3.600967e-05
4.673200e-04 0.000000e+00 8.940749e-06
3.958333e-04 0.000000e+00 3.863374e-06
3.776579e-04 -2.699675e-04 -1.429848e-05
4.234524e-04 0.000000e+00 2.689012e-05
4.567711e-04 -2.025353e-04 1.393091e-05
5.067789e-04 -2.428957e-04 -5.501579e-06
5.041020e-04 -1.440576e-04 2.267677e-05
4.884031e-04 -3.278117e-04 -2.547903e-05
4.783937e-04 0.000000e+00 2.638977e-05
5.100570e-04 1.036479e-04 1.067766e-04
4.977091e-04 1.931627e-04 1.036862e-04
4.942776e-04 2.126807e-04 8.890306e-05
5.001215e-04 1.149306e-04 9.235689e-05
4.753394e-04 1.590235e-04 9.091018e-05
4.748472e-04 9.003477e-05 9.003093e-05
5.017977e-04 7.274329e-05 9.876479e-05
4.495146e-04 2.093002e-05 7.523177e-05
3.679316e-04 0.000000e+00 5.686550e-05
-1.068544e-04 -3.543712e-05 -6.743572e-05
-2.231698e-04 -1.326719e-04 -1.394945e-04
-1.465912e-04 -1.612281e-05 -1.647169e-04
-1.294909e-04 -2.578162e-06 -1.162709e-04
4.621391e-04 1.673037e-05 8.673197e-05
2.595263e-04 -3.235371e-04 -4.034834e-05
2.930307e-04 -3.906237e-04 -6.368831e-05
3.473263e-04 -2.478392e-04 -2.962870e-05
3.167939e-04 -5.485816e-04 -1.034175e-04
2.699645e-04 0.000000e+00 -1.555063e-05
3.738340e-05 0.000000e+00 -3.211015e-05
-1.604590e-04 -3.031615e-04 -4.769655e-05
-1.896616e-04 -3.731629e-04 -6.959842e-05
2.081030e-05 8.992914e-05 -7.805144e-06
0.000000e+00 9.425284e-05 -8.563558e-06
0.000000e+00 1.050355e-04 -1.042782e-05
2.330433e-04 3.346103e-04 -9.427703e-06
5.493906e-04 3.163774e-04 1.396458e-04
0.000000e+00 3.268360e-04 -2.644017e-05
2.841361e-04 2.691756e-04 3.757243e-05
1.911943e-04 2.130607e-04 -5.495496e-05
0.000000e+00 1.496848e-04 2.033571e-04
-1.479260e-05 9.912164e-05 2.191198e-04
-2.193711e-05 2.149809e-04 2.118503e-04
-2.001321e-05 1.387843e-04 2.025112e-04
4.785693e-04 3.576073e-04 9.288655e-05
1.611333e-04 3.086040e-04 -1.087329e-04
4.327876e-04 2.594317e-04 5.264065e-05
3.425687e-04 4.110404e-04 -1.794344e-05
3.591784e-04 -1.793852e-06 2.583418e-05
3.979045e-04 -2.292980e-05 3.330824e-05
2.987064e-04 1.246645e-05 1.175890e-05
3.400804e-04 -4.536773e-05 1.491903e-06
4.189454e-04 -4.027243e-05 2.529801e-05
3.216059e-04 -2.154742e-06 7.424601e-06
3.530604e-04 1.682368e-05 2.827965e-05
3.438948e-04 2.885458e-05 3.444160e-05
3.531909e-04 2.174364e-05 3.725422e-05
3.583494e-04 5.688688e-04 1.499405e-04
4.076296e-04 4.921884e-04 1.433816e-04
4.390369e-04 5.048849e-04 1.447327e-04
3.982274e-04 7.217546e-04 1.182061e-04
0.000000e+00 7.143190e-05 -1.280504e-04
0.000000e+00 1.651380e-05 -9.339173e-05
3.600180e-04 7.948051e-04 1.075316e-04
1.336083e-04 2.896475e-04 -4.886734e-05
2.269491e-04 3.700632e-04 -3.148684e-05
3.341072e-04 2.093819e-04 2.821759e-05
0.000000e+00 2.937055e-04 -1.002480e-04
4.268570e-04 2.915088e-04 7.753760e-05
0.000000e+00 2.577058e-04 -3.808999e-05
2.358909e-04 3.606173e-04 1.463590e-06
3.673641e-04 2.589080e-04 1.670991e-04
3.659598e-04 0.000000e+00 1.870029e-04
-2.119031e-04 -4.605780e-05 -4.244932e-05
-1.960452e-04 -6.760397e-05 -3.685583e-05
-2.187661e-04 -2.449705e-05 -4.115940e-05
4.639417e-04 3.113438e-04 1.612502e-04
2.401857e-04 7.232889e-05 2.101423e-05
2.887119e-04 5.025336e-05 2.488601e-05
2.006062e-04 9.156625e-05 1.127584e-05
2.291123e-04 6.837702e-05 1.903714e-05
2.869506e-04 5.974115e-05 2.955352e-05
1.965151e-04 1.016614e-04 1.368077e-05
1.890688e-04 8.468357e-05 1.467115e-05
2.328896e-04 5.522193e-05 2.209750e-05
2.316244e-04 7.562977e-05 2.210309e-05
-2.246545e-04 -2.297705e-04 -3.412530e-05
-2.656018e-04 -4.664569e-04 -1.013983e-04
-2.860674e-04 -2.162915e-04 -1.174965e-05
-2.437385e-04 -2.329355e-04 -1.768794e-05
-2.554988e-04 0.000000e+00 6.851178e-06
-2.048154e-04 0.000000e+00 7.691340e-06
-2.457384e-04 -2.104307e-04 -2.565188e-04
-3.330778e-04 -3.259406e-04 -2.179510e-04
3.169565e-04 0.000000e+00 5.426844e-05
2.936436e-04 -2.601809e-05 4.774682e-05
3.370914e-04 -1.036174e-05 5.156633e-05
3.069742e-04 0.000000e+00 4.675092e-05
-1.175843e-04 -1.056841e-04 -3.003674e-05
-1.080614e-04 -1.058587e-04 -3.191632e-05
-1.441650e-04 -1.207997e-04 -2.991733e-05
-1.840394e-04 -8.726794e-05 -3.705684e-05
-1.060501e-04 -1.023514e-04 -2.722218e-05
-7.634833e-05 -1.333652e-04 -2.137602e-05
-8.101221e-05 -1.340840e-04 -2.473963e-05
-7.777460e-05 -1.289142e-04 -2.056533e-05
-1.596136e-04 -1.060260e-04 -3.016959e-05
-3.663427e-05 9.939030e-05 -3.388380e-05
0.000000e+00 9.061442e-05 -3.218385e-05
0.000000e+00 9.409154e-05 -3.723392e-05
0.000000e+00 5.676423e-05 -3.483438e-05
-1.432287e-04 -2.619333e-05 -4.204055e-05
-2.248840e-04 -1.338208e-07 -4.555934e-05
0.000000e+00 -2.470800e-05 -3.407237e-05
0.000000e+00 -2.729761e-05 -3.936421e-05
-1.551541e-04 7.011001e-04 4.730846e-05
-2.230289e-04 -1.341196e-04 -5.327275e-05
-2.394493e-04 -1.530458e-04 -6.013640e-05
-1.358241e-04 -2.182873e-05 -1.721362e-05
-2.417638e-04 -1.730553e-04 -1.411490e-04
-2.984165e-04 -2.107216e-04 -1.200324e-04
-2.862897e-04 -7.113119e-04 -1.894674e-04
-3.036834e-04 -7.961729e-04 -2.475027e-04
-2.780914e-04 -1.279297e-03 -4.530241e-04
-3.106221e-04 -8.875254e-04 -3.538134e-04
-2.909425e-04 -4.316376e-04 -1.106783e-04
-2.330566e-04 -5.864980e-04 -1.670032e-04
-3.593429e-04 -5.439020e-04 -1.382062e-04
-3.202947e-04 -1.175021e-03 -4.343510e-04
-2.167573e-04 -1.128561e-03 -4.386091e-04
-4.101345e-04 -1.010034e-03 -3.696282e-04
2.460762e-04 7.010491e-05 1.587684e-05
2.910959e-04 4.398570e-05 3.032552e-05
-3.617316e-04 -6.700830e-04 -4.865040e-04
-2.319854e-04 -2.578009e-04 -3.450231e-04
-4.860002e-04 -7.239833e-04 -5.487421e-04
-2.622001e-04 -3.166653e-04 -4.092856e-04
-3.137922e-04 -1.413091e-04 -3.425797e-04
1.350114e-06 1.241829e-04 -1.471527e-05
-6.875610e-06 1.352917e-04 -1.869449e-05
8.722823e-07 1.346389e-04 -1.547366e-05
3.222084e-04 -2.490491e-05 5.242471e-05
3.074220e-04 -3.775169e-05 5.219272e-05
3.631983e-04 -1.419791e-05 6.290449e-05
3.306058e-04 -1.568877e-05 5.463248e-05
2.943135e-04 -2.973335e-05 4.478757e-05
2.983408e-04 -3.017421e-05 4.541525e-05
3.521158e-04 -8.893837e-06 5.452917e-05
3.035569e-04 -3.456465e-05 5.168722e-05
2.618845e-04 -4.647116e-05 4.262694e-05
2.858048e-04 -4.130742e-05 4.612346e-05
7.109443e-06 1.147418e-04 -1.153864e-05
0.000000e+00 1.005384e-04 -8.932758e-06
0.000000e+00 1.139663e-04 -1.240524e-05
1.744557e-04 1.029381e-04 1.071726e-05
1.521146e-04 1.157989e-04 8.822096e-06
1.521556e-04 1.070705e-04 7.629081e-06
1.760644e-04 7.572278e-05 1.247306e-05
3.473160e-05 -1.463925e-04 5.931343e-06
4.559690e-05 -1.370974e-04 8.999252e-06
1.679997e-05 -1.479842e-04 1.676939e-06
4.747484e-05 -1.375631e-04 6.992509e-06
2.081241e-05 -1.476143e-04 2.166781e-06
5.891193e-05 -1.384207e-04 9.648349e-06
7.374098e-05 -1.267546e-04 1.528538e-05
4.822820e-05 -1.474767e-04 8.172669e-06
4.598149e-05 -1.455925e-04 1.001918e-05
-9.727178e-05 6.491881e-05 -2.331718e-04
0.000000e+00 1.134687e-04 -2.048727e-04
-1.175086e-04 2.432557e-05 -2.049458e-04
-8.915620e-05 5.662307e-05 -2.630911e-04
0.000000e+00 6.854584e-05 -1.719098e-04
-2.054326e-04 -8.690223e-05 -2.766396e-04
-1.594744e-04 3.392534e-05 -2.020597e-04
0.000000e+00 1.408789e-04 -1.965194e-04
-1.245190e-04 1.441774e-04 -2.556136e-04
-1.809591e-04 7.735586e-04 5.229695e-05
-2.029653e-04 7.891725e-04 1.783912e-05
-1.477590e-04 6.861303e-04 9.012467e-05
-2.330865e-04 9.216993e-04 1.820409e-05
8.888980e-04 2.003315e-04 3.918849e-04
4.952437e-04 5.213688e-05 1.313590e-04
6.815971e-04 3.444268e-04 1.524526e-04