# vtk DataFile Version 2.0
Simplicial Mesh Example
ASCII
DATASET UNSTRUCTURED_GRID
POINTS 9490 double
4.132646e+04 -3.761110e+05 -2.495947e+04
1.739130e+04 -4.000000e+05 0.000000e+00
1.424943e+04 -3.757412e+05 -2.497841e+04
3.478261e+04 -4.000000e+05 -2.478841e+04
3.431474e+04 -3.668361e+05 0.000000e+00
6.536071e+04 -3.800007e+05 -2.495579e+04
5.217391e+04 -4.000000e+05 0.000000e+00
5.217391e+04 -4.000000e+05 -5.000000e+04
6.848295e+04 -3.663208e+05 -5.000000e+04
1.739130e+04 -4.000000e+05 -5.000000e+04
3.422046e+04 -3.663210e+05 -5.000000e+04
-4.000000e+05 1.043476e+05 -2.478869e+04
-3.778006e+05 1.290431e+05 -2.559237e+04
-3.668348e+05 1.033122e+05 0.000000e+00
-3.750401e+05 1.075547e+05 -3.181274e+04
4.000000e+05 -3.652174e+05 -2.500000e+04
3.692598e+05 -3.333058e+05 -2.499312e+04
3.776504e+05 -3.747415e+05 -2.247043e+04
3.693733e+05 -3.529960e+05 0.000000e+00
-4.000000e+05 8.695652e+04 0.000000e+00
-3.760516e+05 8.212939e+04 -2.543564e+04
-3.482879e+05 1.253124e+05 -2.574623e+04
-3.665651e+05 9.874016e+04 -5.000000e+04
-3.495547e+05 9.060720e+04 -2.563270e+04
-3.071185e+05 -3.486990e+05 -2.261025e+04
-3.153762e+05 -3.243183e+05 -5.000000e+04
-3.287827e+05 -3.355430e+05 -2.504110e+04
-3.095113e+05 -3.153966e+05 -2.507638e+04
-2.962358e+05 -3.323448e+05 0.000000e+00
-3.357456e+05 -3.422369e+05 0.000000e+00
-2.772919e+05 -3.669732e+05 0.000000e+00
-2.934123e+05 -3.742563e+05 -2.511903e+04
-2.806419e+05 -3.463229e+05 -2.661752e+04
-3.140042e+05 -3.607419e+05 -5.000000e+04
-3.320497e+05 -3.703516e+05 -2.524928e+04
-3.224905e+05 6.841821e+04 -2.756000e+04
-3.000000e+05 4.234958e+04 -2.422604e+04
-3.000000e+05 5.362570e+04 -5.000000e+04
-3.000000e+05 7.749820e+04 -2.479801e+04
3.227610e+05 -1.685566e+05 -2.697912e+04
3.499303e+05 -1.919500e+05 -2.498446e+04
3.500600e+05 -1.567367e+05 -2.546429e+04
3.335574e+05 -1.858748e+05 0.000000e+00
3.000000e+05 -1.659466e+05 0.000000e+00
3.208602e+05 -1.947095e+05 -2.232217e+04
3.000000e+05 -1.806737e+05 -2.506219e+04
3.330650e+05 -1.842018e+05 -5.000000e+04
3.000000e+05 -1.978940e+05 -5.000000e+04
3.000000e+05 -1.638587e+05 -5.000000e+04
-1.949782e+05 -3.787045e+05 -2.503133e+04
-1.713812e+05 -3.663209e+05 -5.000000e+04
-1.725141e+05 -3.772415e+05 -2.530126e+04
-1.913043e+05 -4.000000e+05 -5.000000e+04
-1.972219e+05 -3.510331e+05 -2.499278e+04
-1.739069e+05 -4.000000e+05 -2.478809e+04
-1.716829e+05 -3.668361e+05 0.000000e+00
-1.913043e+05 -4.000000e+05 0.000000e+00
1.358880e+05 -3.243044e+05 -2.504137e+04
1.166322e+05 -3.000000e+05 -2.516475e+04
1.497984e+05 -3.000000e+05 -2.516553e+04
1.333333e+05 -3.000000e+05 -5.000000e+04
1.825802e+05 3.751615e+05 -2.720292e+04
2.119132e+05 3.796036e+05 -2.524922e+04
2.061857e+05 3.668333e+05 0.000000e+00
1.947422e+05 3.503722e+05 -2.524152e+04
1.565217e+05 4.000000e+05 0.000000e+00
1.528807e+05 3.759790e+05 -2.499953e+04
1.739069e+05 4.000000e+05 -2.478809e+04
1.716839e+05 3.668365e+05 0.000000e+00
1.913043e+05 4.000000e+05 0.000000e+00
1.565217e+05 4.000000e+05 -5.000000e+04
1.713714e+05 3.663108e+05 -5.000000e+04
1.613560e+05 3.500277e+05 -2.506640e+04
-8.982230e+04 3.792244e+05 -2.494679e+04
-6.535746e+04 3.800015e+05 -2.495585e+04
-6.848071e+04 3.663195e+05 -5.000000e+04
-8.695652e+04 4.000000e+05 -5.000000e+04
-6.956522e+04 4.000000e+05 -2.478801e+04
-9.132937e+04 3.518806e+05 -2.497956e+04
-8.695652e+04 4.000000e+05 0.000000e+00
-6.863978e+04 3.668364e+05 0.000000e+00
8.983161e+04 -3.792230e+05 -2.494676e+04
8.695652e+04 -4.000000e+05 -5.000000e+04
6.956522e+04 -4.000000e+05 -2.478801e+04
8.695652e+04 -4.000000e+05 0.000000e+00
9.134075e+04 -3.518804e+05 -2.497894e+04
6.864043e+04 -3.668360e+05 0.000000e+00
-1.485035e+05 -3.773486e+05 -2.721498e+04
-1.630495e+05 -3.485427e+05 -2.521974e+04
-1.185212e+05 -3.761066e+05 -2.504756e+04
-1.217391e+05 -4.000000e+05 -5.000000e+04
-1.370985e+05 -3.663236e+05 -5.000000e+04
-1.217391e+05 -4.000000e+05 0.000000e+00
-1.391294e+05 -4.000000e+05 -2.478846e+04
-1.373218e+05 -3.668365e+05 0.000000e+00
-1.565217e+05 -4.000000e+05 0.000000e+00
-1.276844e+05 -3.500075e+05 -2.505733e+04
-3.784905e+05 1.568709e+05 -2.476156e+04
-3.664298e+05 1.337587e+05 -5.000000e+04
-3.514457e+05 1.599418e+05 -2.483113e+04
-4.000000e+05 1.565217e+05 -5.000000e+04
-4.000000e+05 1.391294e+05 -2.478846e+04
-3.668349e+05 1.375908e+05 0.000000e+00
-4.000000e+05 1.565217e+05 0.000000e+00
3.668265e+05 -1.714683e+05 0.000000e+00
4.000000e+05 -1.913043e+05 0.000000e+00
4.000000e+05 -1.739069e+05 -2.478809e+04
4.000000e+05 -1.565217e+05 0.000000e+00
3.763528e+05 1.812702e+05 -2.493822e+04
4.000000e+05 1.565217e+05 0.000000e+00
3.764050e+05 1.528124e+05 -2.490916e+04
4.000000e+05 1.739130e+05 -2.478510e+04
3.668383e+05 1.722952e+05 0.000000e+00
3.797466e+05 2.119345e+05 -2.497186e+04
4.000000e+05 1.913043e+05 -5.000000e+04
3.662642e+05 2.068445e+05 -5.000000e+04
3.507120e+05 1.619053e+05 -2.490325e+04
3.662844e+05 1.729597e+05 -5.000000e+04
4.000000e+05 1.565217e+05 -5.000000e+04
3.776488e+05 -7.900637e+04 -2.735718e+04
3.762845e+05 -4.901174e+04 -2.508786e+04
3.663605e+05 -6.676216e+04 -5.000000e+04
3.502306e+05 -5.807827e+04 -2.511783e+04
4.000000e+05 -5.217391e+04 -5.000000e+04
3.773063e+05 -1.038824e+05 -2.578879e+04
4.000000e+05 -8.695652e+04 0.000000e+00
3.668372e+05 -1.026508e+05 0.000000e+00
4.000000e+05 -5.217391e+04 0.000000e+00
4.000000e+05 -6.956519e+04 -2.478879e+04
3.668380e+05 -6.826645e+04 0.000000e+00
4.000000e+05 -1.043476e+05 -2.478869e+04
-1.666667e+05 -3.000000e+05 -5.000000e+04
-1.833333e+05 -3.000000e+05 -2.518468e+04
-1.933582e+05 -3.216521e+05 -2.503520e+04
-1.657267e+05 -3.213415e+05 -2.506307e+04
-1.666667e+05 -3.000000e+05 0.000000e+00
3.334882e+05 -2.202831e+05 0.000000e+00
3.000000e+05 -1.994599e+05 0.000000e+00
3.000000e+05 -2.085861e+05 -2.501244e+04
-1.859359e+05 -3.331067e+05 -5.000000e+04
-1.862587e+05 -3.335758e+05 0.000000e+00
-4.132523e+04 3.761107e+05 -2.495957e+04
-3.478261e+04 4.000000e+05 -2.478841e+04
-5.217391e+04 4.000000e+05 -5.000000e+04
-1.739130e+04 4.000000e+05 -5.000000e+04
-1.424890e+04 3.757408e+05 -2.497844e+04
-3.421938e+04 3.663190e+05 -5.000000e+04
-5.217391e+04 4.000000e+05 0.000000e+00
-1.739130e+04 4.000000e+05 0.000000e+00
-3.431405e+04 3.668365e+05 0.000000e+00
-2.739007e+04 3.505180e+05 -2.498776e+04
-1.739130e+05 4.000000e+05 -2.478510e+04
-1.528672e+05 3.759826e+05 -2.500255e+04
-1.716148e+05 3.668263e+05 0.000000e+00
-1.825315e+05 3.751689e+05 -2.721318e+04
-1.913043e+05 4.000000e+05 0.000000e+00
-2.059314e+05 3.667832e+05 0.000000e+00
-2.118669e+05 3.796033e+05 -2.526514e+04
-1.612599e+05 3.500460e+05 -2.507149e+04
-1.913043e+05 4.000000e+05 -5.000000e+04
-2.056558e+05 3.663226e+05 -5.000000e+04
-1.712892e+05 3.663242e+05 -5.000000e+04
-1.565217e+05 4.000000e+05 -5.000000e+04
3.507710e+05 -3.071241e+05 -1.983709e+04
3.472371e+05 -2.783609e+05 -2.630278e+04
3.316724e+05 -2.967750e+05 0.000000e+00
3.666108e+05 -2.775848e+05 0.000000e+00
3.309559e+05 -3.255688e+05 -2.698212e+04
3.397681e+05 -3.369212e+05 0.000000e+00
3.744093e+05 -2.934608e+05 -2.492539e+04
3.303054e+05 -2.869393e+05 -5.000000e+04
3.606270e+05 -3.135064e+05 -5.000000e+04
-3.238506e+05 1.781151e+05 -2.284516e+04
-3.335738e+05 1.866432e+05 0.000000e+00
-3.000000e+05 1.673499e+05 0.000000e+00
-3.000000e+05 2.005124e+05 0.000000e+00
-3.242363e+05 2.019112e+05 -2.479758e+04
-3.335722e+05 1.528704e+05 0.000000e+00
-3.219833e+05 1.550144e+05 -2.418889e+04
-3.331119e+05 1.814444e+05 -5.000000e+04
-3.500623e+05 1.947691e+05 -2.492389e+04
3.000000e+05 -1.480457e+05 -2.518612e+04
3.070808e+05 3.546107e+05 -1.714572e+04
2.838715e+05 3.432764e+05 -2.626473e+04
2.962288e+05 3.323792e+05 0.000000e+00
2.772894e+05 3.669850e+05 0.000000e+00
3.214547e+05 3.369143e+05 -2.636251e+04
3.136723e+05 3.607135e+05 -5.000000e+04
2.935138e+05 3.747013e+05 -2.499119e+04
3.357389e+05 3.423035e+05 0.000000e+00
3.310854e+05 3.708053e+05 -2.520548e+04
-3.303425e+05 2.864208e+05 -5.000000e+04
-3.469504e+05 2.817468e+05 -2.677742e+04
-3.300427e+05 3.281790e+05 -2.631692e+04
-3.606526e+05 3.133330e+05 -5.000000e+04
-3.538099e+05 3.084519e+05 -1.787405e+04
-3.749470e+05 2.933940e+05 -2.493585e+04
-3.716865e+05 3.330494e+05 -2.604840e+04
-3.422611e+05 3.357632e+05 0.000000e+00
-3.323575e+05 2.962961e+05 0.000000e+00
-3.669772e+05 2.773495e+05 0.000000e+00
-3.208683e+05 1.285984e+05 -2.543766e+04
-3.000000e+05 1.341874e+05 0.000000e+00
-3.000000e+05 1.457374e+05 -2.479770e+04
-3.331557e+05 1.463574e+05 -5.000000e+04
-3.335717e+05 1.191216e+05 0.000000e+00
-3.000000e+05 1.116890e+05 -2.479816e+04
3.750985e+05 1.731082e+04 -2.495385e+04
3.668370e+05 3.487991e+04 0.000000e+00
3.766226e+05 5.120408e+04 -2.491509e+04
3.486553e+05 3.094323e+04 -2.470062e+04
3.664079e+05 2.208090e+03 -5.000000e+04
3.755591e+05 -1.521008e+04 -2.489784e+04
3.365423e+05 9.969610e+02 -2.491966e+04
3.668382e+05 4.985393e+02 0.000000e+00
4.000000e+05 8.858707e-04 -2.478866e+04
4.000000e+05 1.739130e+04 0.000000e+00
3.664904e+05 3.662308e+04 -5.000000e+04
4.000000e+05 1.739130e+04 -5.000000e+04
4.000000e+05 3.478261e+04 -2.478841e+04
3.241835e+05 -1.338846e+05 -2.511108e+04
3.331162e+05 -1.156285e+05 -5.000000e+04
3.331063e+05 -1.499070e+05 -5.000000e+04
3.000000e+05 -1.298234e+05 -5.000000e+04
3.000000e+05 -1.142814e+05 -2.518156e+04
3.501925e+05 -1.229656e+05 -2.536930e+04
3.335703e+05 -1.518628e+05 0.000000e+00
3.335746e+05 -1.178848e+05 0.000000e+00
3.000000e+05 -1.324332e+05 0.000000e+00
-1.185180e+05 -3.335740e+05 0.000000e+00
-1.333333e+05 -3.000000e+05 0.000000e+00
-1.000000e+05 -3.000000e+05 0.000000e+00
-1.166667e+05 -3.000000e+05 -2.516967e+04
3.767701e+05 8.545747e+04 -2.498937e+04
4.000000e+05 8.695652e+04 -5.000000e+04
3.664910e+05 7.093362e+04 -5.000000e+04
3.664147e+05 1.050627e+05 -5.000000e+04
4.000000e+05 8.695652e+04 0.000000e+00
3.668311e+05 6.925743e+04 0.000000e+00
4.000000e+05 6.956522e+04 -2.478801e+04
3.532003e+05 6.143720e+04 -2.460611e+04
3.529343e+05 9.380645e+04 -2.566405e+04
-6.874474e+04 -3.242435e+05 -2.504036e+04
[...]
CELL_DATA 20058
SCALARS total_strain double 6
LOOKUP_TABLE default
1.379652e-10 8.743894e-10 -2.062224e-10 -1.486198e-09 -2.389949e-11 -1.143953e-10
-6.632783e-10 1.075759e-09 -1.385614e-10 -1.115581e-09 -1.408071e-10 1.990907e-11
7.195666e-10 4.633909e-10 -3.125651e-10 -1.287185e-09 -1.081505e-10 -1.600599e-10
3.459446e-10 5.658585e-10 -2.293294e-10 -1.392945e-09 -8.318163e-11 7.839540e-11
-4.251284e-10 9.890053e-10 -2.032946e-10 -1.035640e-09 -9.587797e-11 -1.430878e-11
-1.061231e-10 7.927605e-10 -2.161148e-10 -1.391654e-09 -1.557942e-10 -5.033796e-11
2.787690e-10 6.353940e-10 -2.215672e-10 -1.146736e-09 -1.079882e-10 -4.138154e-11
-1.333955e-09 -8.680544e-09 1.822575e-09 5.033281e-09 6.753582e-10 4.559663e-11
-3.227117e-09 -8.146451e-09 2.383154e-09 6.625672e-09 1.680369e-09 -9.055441e-11
-1.484528e-09 -8.389559e-09 2.353074e-09 4.735544e-09 1.197052e-09 -8.505308e-11
-3.742229e-09 -4.729201e-09 2.275511e-09 4.769737e-09 1.085682e-09 -3.244094e-10
-2.969825e-09 -7.736835e-09 2.188199e-09 5.829958e-09 1.650759e-09 -5.369635e-10
-2.041756e-09 -7.719619e-09 2.362950e-09 5.176437e-09 7.887663e-10 9.622880e-11
4.421787e-09 -2.288719e-09 -6.033750e-10 -6.125056e-11 1.594790e-11 7.083528e-11
4.022930e-09 -2.363055e-09 -6.270184e-10 1.128202e-10 2.245239e-12 -5.174428e-11
4.050429e-09 -2.295967e-09 -5.766392e-10 1.641675e-10 7.150128e-11 -1.452483e-11
-7.575617e-10 -7.591451e-09 2.146901e-09 -2.069754e-09 -1.136264e-10 -4.482073e-10
-3.051426e-09 -2.093037e-09 2.972473e-10 6.936299e-10 -8.808321e-11 4.988122e-12
-4.223594e-10 -7.718134e-09 2.210562e-09 -1.240592e-09 -2.379008e-11 9.420349e-11
1.498575e-10 -7.592096e-09 2.156688e-09 -2.059412e-09 -1.153388e-10 -2.964999e-10
7.902163e-10 -7.744981e-09 2.291023e-09 -1.105577e-09 -3.823053e-11 -2.416971e-10
5.166390e-10 -9.221916e-09 2.293370e-09 -1.741324e-09 -3.350112e-11 -2.392261e-10
-1.504525e-09 1.768338e-09 -5.656586e-11 -8.319456e-10 -8.517964e-11 -4.969203e-11
-1.297597e-09 1.089788e-08 -6.192073e-09 -2.716058e-09 2.634905e-09 -3.796492e-09
-1.143503e-09 1.472297e-09 -5.721246e-11 -7.102308e-10 -5.622441e-11 4.480127e-11
-1.932932e-09 1.805791e-09 -2.590506e-11 -6.283152e-10 -2.935030e-11 -8.419954e-11
-1.803755e-09 1.782088e-09 -9.245493e-12 -5.912240e-10 -4.836592e-11 -7.291412e-11
-1.461939e-09 1.806054e-09 -7.927881e-12 -4.705862e-10 -2.830913e-11 -3.602840e-11
-1.593814e-09 1.791170e-09 -1.376699e-11 -4.826393e-10 -2.911049e-11 6.086653e-11
-7.280621e-12 9.381367e-10 -2.791074e-10 -9.435521e-10 -1.872409e-10 -7.031375e-12
2.984955e-10 5.036620e-10 -2.201426e-10 -6.196021e-10 -2.324640e-11 4.891376e-11
5.393952e-11 3.439067e-10 -2.890315e-10 -1.022589e-09 -5.464923e-11 4.815981e-11
2.651158e-09 -1.090674e-08 -1.432852e-09 2.919978e-09 -2.594035e-09 3.147716e-10
3.251596e-09 -1.049876e-08 -1.246353e-09 1.968310e-09 -8.842437e-10 3.219049e-10
2.701600e-09 -1.147708e-08 -9.794805e-10 2.777405e-09 -1.377399e-09 4.819376e-10
3.513006e-09 -1.828211e-09 -5.825340e-10 -6.656664e-10 -4.489342e-11 2.269206e-10
3.765001e-09 -1.748188e-09 -5.930971e-10 -5.672304e-10 3.845507e-12 6.845258e-11
3.331400e-09 -1.602023e-09 -5.324545e-10 -7.560569e-10 -7.592138e-11 6.289308e-11
2.579750e-09 -1.382574e-09 -5.272699e-10 -7.092344e-10 -4.244954e-11 -1.825395e-11
-2.315682e-09 1.363907e-09 3.741694e-10 1.854963e-10 3.374537e-11 1.709805e-10
3.547679e-09 -1.733124e-09 -5.618084e-10 -5.450748e-10 -6.288131e-11 2.273033e-10
-6.920506e-10 1.307848e-09 -1.238467e-08 4.506796e-09 -4.786209e-09 3.294703e-09
2.951101e-09 -1.336040e-09 -5.823533e-10 -7.402695e-10 -1.275229e-11 -1.719069e-11
-3.265398e-09 1.288690e-09 6.307732e-10 2.089184e-10 8.594525e-11 -7.205625e-11
-3.289530e-09 1.366742e-09 5.952674e-10 1.729838e-10 1.857436e-11 -6.726031e-11
-3.173639e-09 1.338218e-09 5.539329e-10 1.407168e-10 4.792755e-11 -4.596102e-12
-3.331624e-09 1.466267e-09 5.910743e-10 2.261871e-10 7.205092e-11 -8.686796e-11
-3.369157e-09 1.514957e-09 5.783631e-10 1.268234e-10 -3.028300e-12 -4.962670e-12
1.900393e-08 3.708565e-10 5.987566e-11 8.775173e-09 2.366283e-09 2.113107e-09
4.479495e-09 -1.631090e-08 3.371009e-09 4.025662e-10 2.219887e-16 -6.938983e-11
2.681089e-08 -4.917157e-09 1.078858e-09 8.606573e-09 2.124931e-09 7.693874e-09
1.090089e-08 6.551159e-10 -3.985211e-09 8.866803e-09 -7.049312e-10 1.395053e-10
1.872801e-08 5.803863e-10 -7.871108e-10 9.621270e-09 3.553701e-09 3.656097e-09
2.113892e-08 3.823195e-10 -6.584230e-10 1.291218e-08 3.655573e-09 6.430323e-09
2.084418e-09 6.897404e-09 -1.677287e-08 3.314224e-09 -2.013496e-09 1.166240e-09
2.815039e-08 -1.014992e-08 1.769291e-09 -2.968740e-09 -1.783123e-10 2.228268e-09
2.596398e-08 -1.303955e-08 5.173572e-09 1.293418e-09 1.028522e-10 5.149103e-10
2.694251e-08 -1.198524e-08 8.765335e-10 -1.479287e-09 1.258483e-09 1.076593e-09
2.728460e-08 -1.302253e-08 4.296230e-09 -2.086089e-09 -7.191290e-10 5.664415e-10
2.727377e-08 -1.345639e-08 4.310310e-09 5.879695e-10 7.701492e-10 5.760544e-10
2.792752e-08 -1.304212e-08 5.734037e-09 -1.501891e-09 3.450703e-10 1.546114e-09
2.074731e-08 -6.153401e-09 4.935837e-09 -9.377105e-09 -2.595686e-09 6.308373e-09
1.662869e-08 -5.193152e-09 5.605215e-09 -7.458634e-09 -1.796972e-09 3.883223e-09
1.649614e-08 -4.661811e-09 2.739573e-09 -7.563062e-09 -4.716551e-10 4.594701e-09
2.983777e-08 -1.200354e-08 5.603310e-09 -5.336731e-09 -3.565275e-10 1.174049e-08
2.878839e-08 -1.195930e-08 1.663728e-08 -5.347625e-09 -1.086072e-09 1.089628e-08
2.140161e-08 -7.471582e-09 5.259515e-09 -8.494399e-09 -2.684909e-09 3.437318e-09
2.132372e-08 -8.568727e-09 8.854223e-09 -8.915841e-09 -3.498641e-09 2.530930e-09
2.176458e-09 6.816034e-09 -2.712703e-09 -4.994395e-09 -5.982788e-11 -1.290080e-09
1.112430e-08 6.565678e-09 -4.956817e-10 -6.629173e-09 -7.677322e-10 3.185884e-09
1.538175e-08 7.477504e-10 -2.693370e-10 -6.285644e-09 -1.382036e-09 4.016295e-09
3.132296e-09 3.599459e-09 -9.892998e-11 -4.024535e-09 -7.080712e-10 7.562635e-10
9.376380e-09 1.826975e-10 -1.792679e-09 -4.420521e-09 -4.129283e-10 9.622236e-10
-1.209711e-09 1.553455e-09 -7.952927e-11 -4.741847e-10 -5.193179e-11 4.885314e-11
-1.010815e-09 1.490961e-09 -9.837375e-11 -6.219347e-10 -1.000855e-10 -3.026127e-11
-4.717275e-10 1.234665e-09 -1.806075e-10 -6.271978e-10 -8.404566e-11 -4.762502e-11
-9.596421e-10 1.173169e-09 -1.433200e-10 -4.253145e-10 -9.790724e-11 -4.235279e-11
-1.754968e-09 1.049877e-09 2.204541e-10 5.880807e-11 6.805656e-11 -3.622092e-11
-2.016603e-09 1.230051e-09 2.425011e-10 1.285017e-11 4.898171e-11 1.835332e-11
-1.875867e-09 7.191198e-09 -1.060761e-08 1.967093e-09 -1.089752e-09 7.619302e-10
-2.136728e-09 1.246345e-09 2.712994e-10 1.438363e-10 7.793610e-11 8.809786e-11
-2.020034e-09 1.263621e-09 2.314819e-10 2.207841e-10 6.189699e-11 -1.905254e-11
-1.885986e-09 1.121698e-09 2.355689e-10 3.828795e-10 9.523504e-11 7.196210e-11
-1.699142e-09 9.160406e-10 2.221143e-10 2.083684e-10 5.255929e-11 8.848700e-12
-7.469787e-09 9.363813e-09 2.387174e-09 3.478751e-09 -2.103521e-09 -4.133669e-10
-1.822293e-09 1.312357e-09 2.306333e-10 3.505534e-10 5.217404e-11 -2.464207e-11
-3.975594e-09 6.289190e-09 -7.552946e-09 1.310845e-10 -1.256924e-09 1.411056e-09
-3.849498e-09 -6.114244e-09 1.970099e-09 3.629316e-09 7.761217e-10 -2.417766e-10
-5.006868e-09 -4.801236e-09 2.239298e-09 2.860056e-09 4.105402e-10 -2.322073e-10
-4.996900e-09 -4.122726e-09 1.902777e-09 3.004568e-09 7.357794e-10 -2.641664e-10
-5.642758e-09 -4.979106e-09 2.253409e-09 3.990897e-09 1.175272e-09 -1.178299e-10
-3.729504e-09 -4.653896e-09 1.023166e-09 4.707671e-09 1.438497e-09 -2.810605e-10
-7.183472e-10 1.271053e-09 -1.724576e-10 -9.312293e-10 -9.273649e-11 -9.291123e-11
-1.001105e-09 1.436617e-09 -9.893331e-11 -6.065767e-10 -7.752982e-11 -4.315492e-11
-1.058069e-09 1.346956e-09 -1.070286e-10 -3.950618e-10 2.582564e-11 -1.276623e-11
-7.325290e-10 1.117778e-09 -1.466072e-10 -5.692599e-10 -1.176375e-10 -5.198303e-11
-6.711653e-10 1.134775e-09 -1.708402e-10 -9.479670e-10 -1.910649e-11 -1.290172e-10
-8.251542e-10 1.284466e-09 -1.171108e-10 -5.705538e-10 -1.151745e-12 -1.222284e-10
-7.809642e-09 8.017089e-10 7.226058e-10 -3.808347e-09 -3.272865e-09 -8.848936e-10
-8.054929e-09 3.791870e-09 -7.487786e-10 -2.493700e-09 -2.270164e-09 -6.478786e-10
-7.234824e-09 -1.011705e-09 3.458882e-10 -3.525248e-09 -3.289653e-09 -1.098264e-09
-7.325010e-09 8.129177e-10 -3.278366e-10 -3.727107e-09 -3.200958e-09 -7.606302e-10
-7.872445e-09 2.173538e-09 -1.293775e-09 -3.912905e-09 -3.215715e-09 -1.373878e-09
2.820495e-08 -9.041923e-09 -2.456463e-09 4.325973e-11 2.694385e-10 2.106779e-09
2.822079e-08 -9.121248e-09 2.054339e-10 -7.250973e-11 2.939305e-10 1.440160e-09
7.721594e-09 4.034203e-09 -2.399371e-09 6.836863e-10 1.766363e-09 2.958454e-10
3.141792e-08 -9.056049e-09 -3.328086e-09 -5.530585e-10 -4.104502e-10 4.671750e-09
3.064830e-08 -6.009967e-09 -4.647881e-09 3.136505e-09 1.762108e-09 6.005060e-09
2.689719e-08 -5.555987e-09 -1.094264e-09 -6.082756e-11 3.122471e-10 2.038824e-09
2.501438e-08 -6.944190e-09 -1.754398e-09 2.111016e-09 -1.839861e-11 2.496139e-09
-5.936919e-09 -2.833970e-09 1.518599e-09 1.262399e-09 1.119870e-09 -4.960691e-10
-5.177446e-09 -2.838262e-09 3.766214e-10 2.350413e-09 8.615089e-10 -5.401497e-10
-5.087631e-09 -2.714224e-09 1.632680e-09 2.744959e-09 1.595960e-09 -1.022895e-10
-8.799869e-09 9.536163e-09 -2.979734e-10 3.238074e-09 4.961900e-10 1.192580e-09
-3.916373e-09 -6.069606e-09 1.708566e-09 3.057277e-09 9.829700e-10 -3.856729e-10
-5.014753e-09 -4.708305e-09 1.962802e-09 1.479383e-09 9.438075e-10 1.195740e-10
-2.198890e-09 1.241456e-09 2.844924e-10 2.992899e-10 5.284329e-11 8.800260e-11
-2.316423e-09 1.371523e-09 2.899903e-10 2.358980e-10 3.307865e-11 -1.231126e-12
-1.643578e-09 9.347438e-10 2.262772e-10 1.634199e-10 8.298873e-11 -1.292046e-10
-2.575240e-09 1.408963e-09 2.945040e-10 1.536153e-10 6.776479e-11 -7.170159e-11
-2.044899e-09 1.222132e-09 2.958831e-10 3.332463e-10 3.926082e-11 -1.042861e-10
-2.197369e-09 1.279298e-09 3.253744e-10 3.968887e-10 8.054905e-11 -4.978973e-11
-3.188390e-09 1.105667e-08 -7.851813e-09 -1.105390e-08 1.800978e-09 2.523533e-09
-2.217277e-09 1.238115e-08 2.492198e-09 -1.224034e-08 1.506058e-09 1.336071e-09
-3.473311e-10 8.836922e-09 2.968769e-09 -1.213630e-08 1.900586e-09 3.445586e-10
-7.146603e-10 1.365553e-09 -7.820944e-11 -2.052352e-09 1.189526e-11 6.300516e-11
2.440370e-09 6.452043e-09 2.253200e-09 -1.347493e-08 1.884748e-09 7.299772e-11
-1.462112e-09 8.773835e-09 1.784685e-09 -1.261179e-08 1.639981e-09 1.367270e-09
3.587168e-09 -1.836537e-09 -5.812870e-10 -3.857292e-10 -6.778655e-11 4.853895e-12
3.832415e-09 -2.016406e-09 -5.749259e-10 -3.803997e-10 -2.357897e-11 6.855805e-11
3.196906e-09 -1.682425e-09 -5.428984e-10 -7.165799e-10 -3.384937e-11 -8.566359e-11
3.935622e-09 -2.082263e-09 -6.063221e-10 -5.531257e-10 -2.482384e-11 -7.085895e-12
3.805884e-09 -1.670618e-09 -5.887647e-10 -7.867458e-10 -1.100503e-10 3.648659e-11
3.719509e-09 -2.059069e-09 -5.578956e-10 -4.814585e-10 -9.011972e-11 3.455569e-11
-4.294844e-09 2.413707e-09 -6.683898e-10 -1.239886e-09 -1.443867e-10 -1.776215e-10
-4.156401e-09 1.729370e-09 6.224576e-11 -9.967593e-10 -7.547829e-11 -1.501868e-10
-4.207049e-09 2.237304e-09 -2.508407e-10 -1.370985e-09 -3.773761e-10 2.485145e-11
-4.180587e-09 1.693019e-09 1.990310e-10 -1.035579e-09 -5.917711e-11 -8.289869e-11
4.127172e-09 -2.214660e-09 -6.114966e-10 8.477795e-11 1.584882e-11 7.127077e-12
4.074950e-09 -2.238230e-09 -5.943355e-10 1.663186e-10 1.243942e-11 8.262657e-11
3.811113e-09 -2.165999e-09 -5.947725e-10 3.924625e-10 -3.922909e-12 -3.205114e-11
4.338249e-09 -2.381767e-09 -6.398007e-10 4.644600e-10 1.982442e-12 -7.690443e-11
4.387910e-09 -2.445920e-09 -6.068150e-10 2.072198e-10 7.263710e-11 5.674305e-11
4.181811e-09 -2.272529e-09 -6.180523e-10 7.792055e-11 -2.235802e-11 6.255130e-11
4.071241e-09 -2.256537e-09 -6.047252e-10 -2.597172e-11 1.618783e-11 4.815526e-11
4.171292e-09 -2.350865e-09 -6.161116e-10 6.956225e-11 4.603828e-11 7.475131e-13
4.626610e-09 -2.353163e-09 -5.948682e-10 4.854068e-11 3.792767e-11 1.219602e-10
-1.565623e-09 1.310029e-08 -1.640853e-08 -5.887668e-10 -1.875423e-09 1.261913e-09
-1.676652e-09 1.037606e-09 2.386416e-10 2.473191e-10 -1.103184e-11 2.910461e-11
-1.799123e-09 1.048597e-09 2.523768e-10 5.875282e-10 7.349032e-11 -9.194223e-11
-1.722970e-09 9.637944e-10 1.979190e-10 5.695830e-10 5.730969e-13 -1.330411e-10
-1.899831e-09 1.102317e-09 2.487517e-10 3.394347e-10 1.199041e-12 -1.142879e-10
-2.143475e-09 1.191638e-09 2.389666e-10 4.579128e-10 4.803158e-11 -3.527667e-11
-2.033653e-09 1.205951e-09 2.745915e-10 4.009341e-10 6.133975e-11 -3.931280e-11
1.873568e-09 -3.596716e-09 -1.063299e-08 -9.731010e-09 2.048125e-09 5.418706e-10
-3.729013e-09 3.245672e-09 -5.251208e-09 -8.384290e-09 2.124197e-09 1.504852e-09
-7.345411e-09 4.846578e-09 -2.681707e-09 -3.537511e-09 8.691470e-11 1.515719e-10
-3.635722e-09 -3.600382e-10 -5.287918e-09 -8.440161e-09 1.609869e-09 1.555630e-09
1.795355e-10 -2.771924e-09 -7.457049e-09 -9.444997e-09 3.847447e-10 -6.009198e-10
-2.258618e-09 -9.290515e-10 -5.800687e-09 -8.805098e-09 1.932673e-09 1.616917e-09
5.799059e-09 -1.315803e-08 -5.113069e-09 -4.926224e-09 -3.079530e-09 -3.990377e-10
3.918476e-09 -1.323022e-08 -3.029571e-09 -3.295094e-09 -2.521498e-09 -5.295382e-10
3.995080e-09 -1.143506e-08 -4.951008e-09 -3.834563e-09 -2.752948e-09 -5.149813e-11
4.575468e-09 -1.018258e-08 -7.872303e-09 -5.902679e-09 -2.054163e-09 -8.544076e-10
4.003103e-09 -1.139877e-08 -2.651420e-09 -3.816987e-09 -1.228956e-09 5.127463e-10
2.589251e-09 -1.081288e-08 -4.115583e-09 -3.970904e-09 -1.470774e-09 -9.318568e-10
1.611333e-10 7.100747e-10 -2.577725e-10 -1.156494e-09 -1.674847e-10 -8.939827e-11
1.299938e-10 6.179084e-10 -2.111991e-10 -7.100458e-10 3.022693e-12 -4.539613e-11
6.485030e-10 5.073701e-10 -2.758300e-10 -9.214710e-10 -2.773692e-11 9.655721e-12
6.772221e-10 2.753664e-10 -3.248446e-10 -1.073738e-09 -1.361120e-10 -7.586540e-11
-6.699262e-09 -5.030056e-10 -2.822198e-09 -3.628286e-09 -2.169060e-09 -1.142434e-09
-6.991644e-09 2.069090e-09 -3.636562e-09 -3.494221e-09 -2.184315e-09 -5.223205e-10
-7.119547e-09 8.956684e-10 -1.799476e-09 -2.484372e-09 -1.019444e-09 -5.673388e-10
-5.610736e-09 -5.973266e-11 -2.781936e-09 -4.099210e-09 -3.589617e-11 1.819755e-10
-1.290393e-09 1.705483e-09 -9.334844e-11 -1.802506e-10 -4.152012e-11 -2.812933e-11
-1.170436e-09 1.465942e-09 -9.894352e-11 -5.308523e-10 -1.039304e-10 -1.434963e-11
-1.234575e-09 1.707535e-09 -1.106273e-10 -3.251712e-10 -4.333456e-11 -6.065742e-11
-3.827811e-09 7.682041e-09 -1.431839e-08 -7.385994e-09 -1.121828e-09 -7.386595e-10
-1.583023e-09 1.755972e-09 -9.353074e-11 -3.743263e-10 -3.577538e-11 -7.967049e-11
1.429365e-09 -9.704346e-09 2.381737e-09 -2.531872e-09 3.532611e-10 -1.611682e-10
2.706304e-09 -1.291637e-08 2.394160e-09 -2.392075e-09 -7.737788e-11 -2.180266e-11
1.631323e-09 -1.022642e-08 1.795917e-09 -2.882740e-09 7.016777e-10 -2.103590e-11
2.667788e-09 -1.080305e-08 1.763524e-09 -2.936248e-09 1.083189e-10 -8.749637e-11
2.659378e-09 -1.173255e-08 2.109169e-09 -2.710755e-09 4.553036e-10 -2.335649e-11
1.943221e-09 -9.611578e-10 -3.610339e-10 7.710008e-10 4.390577e-11 2.340461e-10
-5.151239e-09 -5.282748e-09 1.020785e-09 -2.953528e-09 -1.576103e-09 -6.230960e-10
-3.041770e-09 -4.350659e-09 1.861948e-09 -4.230450e-09 -4.806657e-10 -6.529309e-10
-3.114190e-09 -5.731104e-09 8.090688e-10 -2.557983e-09 -8.747355e-10 -6.029202e-10
-4.756583e-09 -3.570828e-09 1.970110e-09 -2.089579e-09 -1.409458e-09 8.093659e-11
-4.898480e-09 -5.475399e-09 1.810971e-09 -3.128925e-09 -1.833495e-09 -1.735163e-10
-3.033928e-09 -8.945125e-09 -4.671450e-10 -3.707384e-09 -3.174422e-09 -9.994038e-10
-1.673156e-09 9.007901e-10 1.503515e-10 2.217106e-10 9.889489e-11 4.916489e-11
-3.355338e-09 2.901307e-09 -6.655303e-10 -3.038325e-09 -7.320055e-11 -2.959015e-10
-2.923146e-09 3.374858e-09 -8.871011e-10 -3.947831e-09 -5.767005e-10 3.725746e-10
-4.127601e-09 2.823675e-09 -9.353274e-10 -2.181024e-09 -3.372217e-10 1.815734e-10
-3.228258e-09 3.141861e-09 -9.694836e-10 -2.793951e-09 -1.502223e-10 -1.745974e-10
-3.430351e-09 3.875685e-09 -1.113252e-09 -3.664010e-09 -4.542835e-10 6.007519e-10
-5.522092e-08 -2.610204e-08 1.288747e-07 -2.305377e-09 -4.092506e-09 -8.486434e-10
-4.184919e-08 -1.158978e-08 1.083949e-07 -1.188244e-08 -1.611823e-08 3.056854e-09
-5.306974e-08 -2.814750e-08 1.267891e-07 2.843122e-09 -1.369184e-09 -2.879151e-09
-4.952615e-08 -1.146422e-08 1.615410e-07 7.734938e-09 -1.733406e-08 -1.102107e-08
-4.954005e-08 -2.211273e-08 1.322548e-07 -2.026747e-09 -7.147292e-09 1.620253e-09
-8.986113e-09 6.009395e-09 -1.449437e-09 4.308378e-09 3.194689e-09 -1.583363e-09
-9.326460e-09 6.078709e-09 -1.407576e-09 4.204425e-09 3.121418e-09 -1.606380e-09
-1.011924e-08 6.990039e-09 -2.464132e-09 9.026779e-09 4.159284e-09 -3.487077e-09
7.973977e-11 -1.012390e-11 -6.608047e-12 9.054602e-10 1.419842e-10 -5.170531e-12
-1.003044e-08 1.047602e-08 -5.024707e-09 7.355949e-09 4.672675e-09 -5.103201e-09
-8.751403e-09 7.049045e-09 -1.279937e-09 3.108737e-09 2.690578e-09 -9.145686e-10
-7.768998e-09 1.031540e-08 -3.764530e-09 1.860155e-09 3.239162e-09 -2.436097e-09
2.647551e-09 -1.171617e-09 -3.807905e-10 1.654258e-09 -3.288830e-11 2.678481e-11
2.872972e-09 -1.482629e-09 -4.119638e-10 1.546246e-09 -7.052026e-11 -1.170037e-10
2.504137e-09 -1.171628e-09 -3.672502e-10 1.193539e-09 -5.377432e-11 -1.442824e-11
2.013442e-09 -9.595544e-10 -2.936211e-10 1.422935e-09 -2.517704e-11 8.514522e-12
7.214433e-10 -9.823649e-09 -1.226693e-09 1.933921e-09 -7.689263e-10 3.061537e-10
-1.146884e-09 -5.620535e-09 -1.382699e-09 2.435726e-09 -4.248052e-10 4.143241e-10
5.853957e-10 -7.006546e-09 -8.360157e-10 1.792458e-09 -5.527860e-10 6.445232e-12
-8.083387e-09 1.401336e-08 -6.630298e-09 -6.166137e-09 3.065058e-09 3.014639e-09
-1.096574e-09 -5.206474e-09 -3.670531e-09 3.469288e-09 -1.557174e-09 5.858011e-10
-1.079901e-09 -5.088125e-09 -2.297252e-09 3.355407e-09 -2.048665e-09 1.307812e-09
6.801142e-10 -7.539680e-09 -1.881466e-09 2.109542e-09 2.037726e-10 -3.541901e-10
1.749730e-09 -8.466649e-09 -1.545781e-09 3.070860e-09 -1.600638e-09 1.216136e-09
6.802960e-10 -1.072793e-08 -1.862757e-10 3.391157e-09 -2.116794e-09 1.276873e-09
1.080834e-09 -8.078071e-09 -1.966463e-09 3.492722e-09 -2.134662e-09 4.379407e-10
-3.086641e-09 1.277762e-09 5.767720e-10 3.009122e-10 2.336042e-11 2.294734e-12
-3.096443e-09 1.318844e-09 5.537524e-10 3.757853e-10 4.555378e-11 -8.963299e-11
-3.100532e-09 1.218850e-09 5.699343e-10 1.598118e-10 3.022307e-11 -3.017567e-11
2.014554e-09 -9.595140e-10 -3.267226e-10 1.423181e-09 3.547163e-11 1.898655e-10
1.644942e-09 -7.656960e-10 -2.824505e-10 1.093426e-09 5.584844e-11 -1.960736e-10
1.725514e-09 -7.259775e-10 -2.478733e-10 1.608637e-09 9.735235e-11 1.957656e-10
3.346959e-09 -1.537598e-09 -5.778720e-10 -8.940886e-10 -3.288880e-11 2.517364e-11
3.310532e-09 -1.647364e-09 -5.513900e-10 -9.631466e-10 -1.202518e-10 -3.829381e-12
3.981324e-09 -1.839916e-09 -5.977945e-10 -1.050281e-09 -6.590317e-11 7.898242e-11
3.369092e-09 -1.463784e-09 -6.076224e-10 -9.474639e-10 5.771106e-11 7.832235e-12
3.633601e-09 -1.767273e-09 -5.823408e-10 -4.388616e-10 1.491818e-11 -1.181762e-10
4.107141e-09 -2.031209e-09 -6.266448e-10 -5.102898e-10 -1.488790e-11 7.865819e-11
3.984443e-09 -2.141069e-09 -6.133130e-10 -6.458604e-10 2.488676e-12 -1.578848e-11
1.273964e-08 -7.536346e-10 1.024600e-08 1.425188e-08 7.094165e-10 6.483117e-09
1.362912e-08 -1.003663e-08 4.078782e-08 1.600476e-08 4.440226e-09 6.103251e-09
1.749160e-08 -1.004568e-08 1.525752e-08 1.266872e-08 3.362268e-09 4.412123e-09
1.473621e-08 -4.886869e-09 1.946358e-08 1.366808e-08 2.714086e-09 7.980354e-09
4.512838e-09 -1.980857e-09 -7.506777e-10 -1.233956e-09 3.741829e-11 1.203397e-10
3.377846e-09 -1.642628e-09 -5.645964e-10 -1.518744e-09 2.266887e-11 1.507710e-10
4.223515e-09 -2.056596e-09 -7.014149e-10 -1.506180e-09 3.329537e-11 -7.914580e-11
3.678145e-09 -1.666412e-09 -5.883254e-10 -1.263650e-09 4.663780e-11 -7.028711e-11
-5.209505e-09 -1.448223e-09 -2.898930e-09 -4.472648e-09 -1.235019e-09 -3.819781e-10