# vtk DataFile Version 2.0
Simplicial Mesh Example
ASCII
DATASET UNSTRUCTURED_GRID
POINTS 9490 double
4.132646e+04 -3.761110e+05 -2.495947e+04
1.739130e+04 -4.000000e+05 0.000000e+00
1.424943e+04 -3.757412e+05 -2.497841e+04
3.478261e+04 -4.000000e+05 -2.478841e+04
3.431474e+04 -3.668361e+05 0.000000e+00
6.536071e+04 -3.800007e+05 -2.495579e+04
5.217391e+04 -4.000000e+05 0.000000e+00
5.217391e+04 -4.000000e+05 -5.000000e+04
6.848295e+04 -3.663208e+05 -5.000000e+04
1.739130e+04 -4.000000e+05 -5.000000e+04
3.422046e+04 -3.663210e+05 -5.000000e+04
-4.000000e+05 1.043476e+05 -2.478869e+04
-3.778006e+05 1.290431e+05 -2.559237e+04
-3.668348e+05 1.033122e+05 0.000000e+00
-3.750401e+05 1.075547e+05 -3.181274e+04
4.000000e+05 -3.652174e+05 -2.500000e+04
3.692598e+05 -3.333058e+05 -2.499312e+04
3.776504e+05 -3.747415e+05 -2.247043e+04
3.693733e+05 -3.529960e+05 0.000000e+00
-4.000000e+05 8.695652e+04 0.000000e+00
-3.760516e+05 8.212939e+04 -2.543564e+04
-3.482879e+05 1.253124e+05 -2.574623e+04
-3.665651e+05 9.874016e+04 -5.000000e+04
-3.495547e+05 9.060720e+04 -2.563270e+04
-3.071185e+05 -3.486990e+05 -2.261025e+04
-3.153762e+05 -3.243183e+05 -5.000000e+04
-3.287827e+05 -3.355430e+05 -2.504110e+04
-3.095113e+05 -3.153966e+05 -2.507638e+04
-2.962358e+05 -3.323448e+05 0.000000e+00
-3.357456e+05 -3.422369e+05 0.000000e+00
-2.772919e+05 -3.669732e+05 0.000000e+00
-2.934123e+05 -3.742563e+05 -2.511903e+04
-2.806419e+05 -3.463229e+05 -2.661752e+04
-3.140042e+05 -3.607419e+05 -5.000000e+04
-3.320497e+05 -3.703516e+05 -2.524928e+04
-3.224905e+05 6.841821e+04 -2.756000e+04
-3.000000e+05 4.234958e+04 -2.422604e+04
-3.000000e+05 5.362570e+04 -5.000000e+04
-3.000000e+05 7.749820e+04 -2.479801e+04
3.227610e+05 -1.685566e+05 -2.697912e+04
3.499303e+05 -1.919500e+05 -2.498446e+04
3.500600e+05 -1.567367e+05 -2.546429e+04
3.335574e+05 -1.858748e+05 0.000000e+00
3.000000e+05 -1.659466e+05 0.000000e+00
3.208602e+05 -1.947095e+05 -2.232217e+04
3.000000e+05 -1.806737e+05 -2.506219e+04
3.330650e+05 -1.842018e+05 -5.000000e+04
3.000000e+05 -1.978940e+05 -5.000000e+04
3.000000e+05 -1.638587e+05 -5.000000e+04
-1.949782e+05 -3.787045e+05 -2.503133e+04
-1.713812e+05 -3.663209e+05 -5.000000e+04
-1.725141e+05 -3.772415e+05 -2.530126e+04
-1.913043e+05 -4.000000e+05 -5.000000e+04
-1.972219e+05 -3.510331e+05 -2.499278e+04
-1.739069e+05 -4.000000e+05 -2.478809e+04
-1.716829e+05 -3.668361e+05 0.000000e+00
-1.913043e+05 -4.000000e+05 0.000000e+00
1.358880e+05 -3.243044e+05 -2.504137e+04
1.166322e+05 -3.000000e+05 -2.516475e+04
1.497984e+05 -3.000000e+05 -2.516553e+04
1.333333e+05 -3.000000e+05 -5.000000e+04
1.825802e+05 3.751615e+05 -2.720292e+04
2.119132e+05 3.796036e+05 -2.524922e+04
2.061857e+05 3.668333e+05 0.000000e+00
1.947422e+05 3.503722e+05 -2.524152e+04
1.565217e+05 4.000000e+05 0.000000e+00
1.528807e+05 3.759790e+05 -2.499953e+04
1.739069e+05 4.000000e+05 -2.478809e+04
1.716839e+05 3.668365e+05 0.000000e+00
1.913043e+05 4.000000e+05 0.000000e+00
1.565217e+05 4.000000e+05 -5.000000e+04
1.713714e+05 3.663108e+05 -5.000000e+04
1.613560e+05 3.500277e+05 -2.506640e+04
-8.982230e+04 3.792244e+05 -2.494679e+04
-6.535746e+04 3.800015e+05 -2.495585e+04
-6.848071e+04 3.663195e+05 -5.000000e+04
-8.695652e+04 4.000000e+05 -5.000000e+04
-6.956522e+04 4.000000e+05 -2.478801e+04
-9.132937e+04 3.518806e+05 -2.497956e+04
-8.695652e+04 4.000000e+05 0.000000e+00
-6.863978e+04 3.668364e+05 0.000000e+00
8.983161e+04 -3.792230e+05 -2.494676e+04
8.695652e+04 -4.000000e+05 -5.000000e+04
6.956522e+04 -4.000000e+05 -2.478801e+04
8.695652e+04 -4.000000e+05 0.000000e+00
9.134075e+04 -3.518804e+05 -2.497894e+04
6.864043e+04 -3.668360e+05 0.000000e+00
-1.485035e+05 -3.773486e+05 -2.721498e+04
-1.630495e+05 -3.485427e+05 -2.521974e+04
-1.185212e+05 -3.761066e+05 -2.504756e+04
-1.217391e+05 -4.000000e+05 -5.000000e+04
-1.370985e+05 -3.663236e+05 -5.000000e+04
-1.217391e+05 -4.000000e+05 0.000000e+00
-1.391294e+05 -4.000000e+05 -2.478846e+04
-1.373218e+05 -3.668365e+05 0.000000e+00
-1.565217e+05 -4.000000e+05 0.000000e+00
-1.276844e+05 -3.500075e+05 -2.505733e+04
-3.784905e+05 1.568709e+05 -2.476156e+04
-3.664298e+05 1.337587e+05 -5.000000e+04
-3.514457e+05 1.599418e+05 -2.483113e+04
-4.000000e+05 1.565217e+05 -5.000000e+04
-4.000000e+05 1.391294e+05 -2.478846e+04
-3.668349e+05 1.375908e+05 0.000000e+00
-4.000000e+05 1.565217e+05 0.000000e+00
3.668265e+05 -1.714683e+05 0.000000e+00
4.000000e+05 -1.913043e+05 0.000000e+00
4.000000e+05 -1.739069e+05 -2.478809e+04
4.000000e+05 -1.565217e+05 0.000000e+00
3.763528e+05 1.812702e+05 -2.493822e+04
4.000000e+05 1.565217e+05 0.000000e+00
3.764050e+05 1.528124e+05 -2.490916e+04
4.000000e+05 1.739130e+05 -2.478510e+04
3.668383e+05 1.722952e+05 0.000000e+00
3.797466e+05 2.119345e+05 -2.497186e+04
4.000000e+05 1.913043e+05 -5.000000e+04
3.662642e+05 2.068445e+05 -5.000000e+04
3.507120e+05 1.619053e+05 -2.490325e+04
3.662844e+05 1.729597e+05 -5.000000e+04
4.000000e+05 1.565217e+05 -5.000000e+04
3.776488e+05 -7.900637e+04 -2.735718e+04
3.762845e+05 -4.901174e+04 -2.508786e+04
3.663605e+05 -6.676216e+04 -5.000000e+04
3.502306e+05 -5.807827e+04 -2.511783e+04
4.000000e+05 -5.217391e+04 -5.000000e+04
3.773063e+05 -1.038824e+05 -2.578879e+04
4.000000e+05 -8.695652e+04 0.000000e+00
3.668372e+05 -1.026508e+05 0.000000e+00
4.000000e+05 -5.217391e+04 0.000000e+00
4.000000e+05 -6.956519e+04 -2.478879e+04
3.668380e+05 -6.826645e+04 0.000000e+00
4.000000e+05 -1.043476e+05 -2.478869e+04
-1.666667e+05 -3.000000e+05 -5.000000e+04
-1.833333e+05 -3.000000e+05 -2.518468e+04
-1.933582e+05 -3.216521e+05 -2.503520e+04
-1.657267e+05 -3.213415e+05 -2.506307e+04
-1.666667e+05 -3.000000e+05 0.000000e+00
3.334882e+05 -2.202831e+05 0.000000e+00
3.000000e+05 -1.994599e+05 0.000000e+00
3.000000e+05 -2.085861e+05 -2.501244e+04
-1.859359e+05 -3.331067e+05 -5.000000e+04
-1.862587e+05 -3.335758e+05 0.000000e+00
-4.132523e+04 3.761107e+05 -2.495957e+04
-3.478261e+04 4.000000e+05 -2.478841e+04
-5.217391e+04 4.000000e+05 -5.000000e+04
-1.739130e+04 4.000000e+05 -5.000000e+04
-1.424890e+04 3.757408e+05 -2.497844e+04
-3.421938e+04 3.663190e+05 -5.000000e+04
-5.217391e+04 4.000000e+05 0.000000e+00
-1.739130e+04 4.000000e+05 0.000000e+00
-3.431405e+04 3.668365e+05 0.000000e+00
-2.739007e+04 3.505180e+05 -2.498776e+04
-1.739130e+05 4.000000e+05 -2.478510e+04
-1.528672e+05 3.759826e+05 -2.500255e+04
-1.716148e+05 3.668263e+05 0.000000e+00
-1.825315e+05 3.751689e+05 -2.721318e+04
-1.913043e+05 4.000000e+05 0.000000e+00
-2.059314e+05 3.667832e+05 0.000000e+00
-2.118669e+05 3.796033e+05 -2.526514e+04
-1.612599e+05 3.500460e+05 -2.507149e+04
-1.913043e+05 4.000000e+05 -5.000000e+04
-2.056558e+05 3.663226e+05 -5.000000e+04
-1.712892e+05 3.663242e+05 -5.000000e+04
-1.565217e+05 4.000000e+05 -5.000000e+04
3.507710e+05 -3.071241e+05 -1.983709e+04
3.472371e+05 -2.783609e+05 -2.630278e+04
3.316724e+05 -2.967750e+05 0.000000e+00
3.666108e+05 -2.775848e+05 0.000000e+00
3.309559e+05 -3.255688e+05 -2.698212e+04
3.397681e+05 -3.369212e+05 0.000000e+00
3.744093e+05 -2.934608e+05 -2.492539e+04
3.303054e+05 -2.869393e+05 -5.000000e+04
3.606270e+05 -3.135064e+05 -5.000000e+04
-3.238506e+05 1.781151e+05 -2.284516e+04
-3.335738e+05 1.866432e+05 0.000000e+00
-3.000000e+05 1.673499e+05 0.000000e+00
-3.000000e+05 2.005124e+05 0.000000e+00
-3.242363e+05 2.019112e+05 -2.479758e+04
-3.335722e+05 1.528704e+05 0.000000e+00
-3.219833e+05 1.550144e+05 -2.418889e+04
-3.331119e+05 1.814444e+05 -5.000000e+04
-3.500623e+05 1.947691e+05 -2.492389e+04
3.000000e+05 -1.480457e+05 -2.518612e+04
3.070808e+05 3.546107e+05 -1.714572e+04
2.838715e+05 3.432764e+05 -2.626473e+04
2.962288e+05 3.323792e+05 0.000000e+00
2.772894e+05 3.669850e+05 0.000000e+00
3.214547e+05 3.369143e+05 -2.636251e+04
3.136723e+05 3.607135e+05 -5.000000e+04
2.935138e+05 3.747013e+05 -2.499119e+04
3.357389e+05 3.423035e+05 0.000000e+00
3.310854e+05 3.708053e+05 -2.520548e+04
-3.303425e+05 2.864208e+05 -5.000000e+04
-3.469504e+05 2.817468e+05 -2.677742e+04
-3.300427e+05 3.281790e+05 -2.631692e+04
-3.606526e+05 3.133330e+05 -5.000000e+04
-3.538099e+05 3.084519e+05 -1.787405e+04
-3.749470e+05 2.933940e+05 -2.493585e+04
-3.716865e+05 3.330494e+05 -2.604840e+04
-3.422611e+05 3.357632e+05 0.000000e+00
-3.323575e+05 2.962961e+05 0.000000e+00
-3.669772e+05 2.773495e+05 0.000000e+00
-3.208683e+05 1.285984e+05 -2.543766e+04
-3.000000e+05 1.341874e+05 0.000000e+00
-3.000000e+05 1.457374e+05 -2.479770e+04
-3.331557e+05 1.463574e+05 -5.000000e+04
-3.335717e+05 1.191216e+05 0.000000e+00
-3.000000e+05 1.116890e+05 -2.479816e+04
3.750985e+05 1.731082e+04 -2.495385e+04
3.668370e+05 3.487991e+04 0.000000e+00
3.766226e+05 5.120408e+04 -2.491509e+04
3.486553e+05 3.094323e+04 -2.470062e+04
3.664079e+05 2.208090e+03 -5.000000e+04
3.755591e+05 -1.521008e+04 -2.489784e+04
3.365423e+05 9.969610e+02 -2.491966e+04
3.668382e+05 4.985393e+02 0.000000e+00
4.000000e+05 8.858707e-04 -2.478866e+04
4.000000e+05 1.739130e+04 0.000000e+00
3.664904e+05 3.662308e+04 -5.000000e+04
4.000000e+05 1.739130e+04 -5.000000e+04
4.000000e+05 3.478261e+04 -2.478841e+04
3.241835e+05 -1.338846e+05 -2.511108e+04
3.331162e+05 -1.156285e+05 -5.000000e+04
3.331063e+05 -1.499070e+05 -5.000000e+04
3.000000e+05 -1.298234e+05 -5.000000e+04
3.000000e+05 -1.142814e+05 -2.518156e+04
3.501925e+05 -1.229656e+05 -2.536930e+04
3.335703e+05 -1.518628e+05 0.000000e+00
3.335746e+05 -1.178848e+05 0.000000e+00
3.000000e+05 -1.324332e+05 0.000000e+00
-1.185180e+05 -3.335740e+05 0.000000e+00
-1.333333e+05 -3.000000e+05 0.000000e+00
-1.000000e+05 -3.000000e+05 0.000000e+00
-1.166667e+05 -3.000000e+05 -2.516967e+04
3.767701e+05 8.545747e+04 -2.498937e+04
4.000000e+05 8.695652e+04 -5.000000e+04
3.664910e+05 7.093362e+04 -5.000000e+04
3.664147e+05 1.050627e+05 -5.000000e+04
4.000000e+05 8.695652e+04 0.000000e+00
3.668311e+05 6.925743e+04 0.000000e+00
4.000000e+05 6.956522e+04 -2.478801e+04
3.532003e+05 6.143720e+04 -2.460611e+04
3.529343e+05 9.380645e+04 -2.566405e+04
-6.874474e+04 -3.242435e+05 -2.504036e+04
[...]
CELL_DATA 20058
SCALARS total_strain double 6
LOOKUP_TABLE default
1.379670e-10 8.743877e-10 -2.062226e-10 -1.486198e-09 -2.390127e-11 -1.143942e-10
-6.632774e-10 1.075757e-09 -1.385618e-10 -1.115581e-09 -1.408078e-10 1.990930e-11
7.195666e-10 4.633909e-10 -3.125642e-10 -1.287186e-09 -1.081507e-10 -1.600589e-10
3.459437e-10 5.658589e-10 -2.293299e-10 -1.392945e-09 -8.318091e-11 7.839496e-11
-4.251284e-10 9.890062e-10 -2.032946e-10 -1.035638e-09 -9.587797e-11 -1.430922e-11
-1.061231e-10 7.927614e-10 -2.161148e-10 -1.391654e-09 -1.557943e-10 -5.033873e-11
2.787681e-10 6.353922e-10 -2.215672e-10 -1.146737e-09 -1.079874e-10 -4.138193e-11
-1.333950e-09 -8.680551e-09 1.822575e-09 5.033282e-09 6.753584e-10 4.559597e-11
-3.227116e-09 -8.146451e-09 2.383154e-09 6.625673e-09 1.680368e-09 -9.055485e-11
-1.484528e-09 -8.389563e-09 2.353075e-09 4.735543e-09 1.197052e-09 -8.505330e-11
-3.742229e-09 -4.729202e-09 2.275511e-09 4.769737e-09 1.085681e-09 -3.244103e-10
-2.969823e-09 -7.736833e-09 2.188199e-09 5.829959e-09 1.650758e-09 -5.369640e-10
-2.041756e-09 -7.719620e-09 2.362950e-09 5.176437e-09 7.887655e-10 9.622813e-11
4.421789e-09 -2.288719e-09 -6.033750e-10 -6.125034e-11 1.594785e-11 7.083534e-11
4.022931e-09 -2.363055e-09 -6.270175e-10 1.128205e-10 2.244913e-12 -5.174416e-11
4.050428e-09 -2.295967e-09 -5.766396e-10 1.641665e-10 7.150067e-11 -1.452682e-11
-7.575613e-10 -7.591451e-09 2.146900e-09 -2.069753e-09 -1.136260e-10 -4.482074e-10
-3.051427e-09 -2.093036e-09 2.972482e-10 6.936299e-10 -8.808432e-11 4.988011e-12
-4.223598e-10 -7.718135e-09 2.210561e-09 -1.240592e-09 -2.378986e-11 9.420345e-11
1.498575e-10 -7.592096e-09 2.156688e-09 -2.059412e-09 -1.153391e-10 -2.964998e-10
7.902166e-10 -7.744981e-09 2.291023e-09 -1.105577e-09 -3.823208e-11 -2.416972e-10
5.166392e-10 -9.221917e-09 2.293369e-09 -1.741324e-09 -3.350203e-11 -2.392264e-10
-1.504525e-09 1.768338e-09 -5.656497e-11 -8.319452e-10 -8.517953e-11 -4.969170e-11
-1.297595e-09 1.089788e-08 -6.192073e-09 -2.716058e-09 2.634905e-09 -3.796494e-09
-1.143503e-09 1.472296e-09 -5.721246e-11 -7.102308e-10 -5.622636e-11 4.480172e-11
-1.932930e-09 1.805793e-09 -2.590506e-11 -6.283161e-10 -2.934908e-11 -8.419876e-11
-1.803755e-09 1.782092e-09 -9.245493e-12 -5.912231e-10 -4.836637e-11 -7.291412e-11
-1.461939e-09 1.806058e-09 -7.927881e-12 -4.705862e-10 -2.831047e-11 -3.602729e-11
-1.593816e-09 1.791172e-09 -1.376610e-11 -4.826413e-10 -2.910938e-11 6.086731e-11
-7.280621e-12 9.381367e-10 -2.791074e-10 -9.435519e-10 -1.872400e-10 -7.033152e-12
2.984937e-10 5.036629e-10 -2.201426e-10 -6.196004e-10 -2.324707e-11 4.891465e-11
5.393952e-11 3.439065e-10 -2.890306e-10 -1.022590e-09 -5.464856e-11 4.815809e-11
2.651158e-09 -1.090674e-08 -1.432851e-09 2.919978e-09 -2.594035e-09 3.147720e-10
3.251596e-09 -1.049876e-08 -1.246353e-09 1.968312e-09 -8.842415e-10 3.219044e-10
2.701600e-09 -1.147708e-08 -9.794803e-10 2.777406e-09 -1.377398e-09 4.819380e-10
3.513009e-09 -1.828210e-09 -5.825331e-10 -6.656671e-10 -4.489231e-11 2.269215e-10
3.764997e-09 -1.748188e-09 -5.930962e-10 -5.672315e-10 3.845285e-12 6.845169e-11
3.331400e-09 -1.602022e-09 -5.324545e-10 -7.560573e-10 -7.592171e-11 6.289352e-11
2.579752e-09 -1.382575e-09 -5.272699e-10 -7.092340e-10 -4.244977e-11 -1.825307e-11
-2.315682e-09 1.363907e-09 3.741685e-10 1.854963e-10 3.374726e-11 1.709805e-10
3.547676e-09 -1.733123e-09 -5.618079e-10 -5.450751e-10 -6.288164e-11 2.273042e-10
-6.920509e-10 1.307848e-09 -1.238467e-08 4.506796e-09 -4.786209e-09 3.294703e-09
2.951101e-09 -1.336041e-09 -5.823531e-10 -7.402700e-10 -1.275284e-11 -1.719069e-11
-3.265397e-09 1.288689e-09 6.307728e-10 2.089184e-10 8.594614e-11 -7.205714e-11
-3.289530e-09 1.366742e-09 5.952674e-10 1.729821e-10 1.857425e-11 -6.726220e-11
-3.173642e-09 1.338218e-09 5.539329e-10 1.407159e-10 4.792744e-11 -4.597656e-12
-3.331622e-09 1.466267e-09 5.910743e-10 2.261866e-10 7.205081e-11 -8.686885e-11
-3.369157e-09 1.514957e-09 5.783631e-10 1.268234e-10 -3.028300e-12 -4.962670e-12
1.900393e-08 3.708582e-10 5.987699e-11 8.775174e-09 2.366284e-09 2.113108e-09
4.479495e-09 -1.631090e-08 3.371008e-09 4.025658e-10 2.219887e-16 -6.939072e-11
2.681089e-08 -4.917157e-09 1.078857e-09 8.606575e-09 2.124930e-09 7.693872e-09
1.090089e-08 6.551172e-10 -3.985211e-09 8.866805e-09 -7.049300e-10 1.395063e-10
1.872801e-08 5.803863e-10 -7.871124e-10 9.621268e-09 3.553700e-09 3.656096e-09
2.113892e-08 3.823182e-10 -6.584248e-10 1.291218e-08 3.655572e-09 6.430321e-09
2.084419e-09 6.897404e-09 -1.677287e-08 3.314223e-09 -2.013495e-09 1.166239e-09
2.815039e-08 -1.014992e-08 1.769292e-09 -2.968740e-09 -1.783120e-10 2.228268e-09
2.596398e-08 -1.303955e-08 5.173573e-09 1.293419e-09 1.028517e-10 5.149103e-10
2.694251e-08 -1.198524e-08 8.765326e-10 -1.479288e-09 1.258483e-09 1.076591e-09
2.728460e-08 -1.302253e-08 4.296230e-09 -2.086089e-09 -7.191281e-10 5.664416e-10
2.727377e-08 -1.345639e-08 4.310311e-09 5.879678e-10 7.701482e-10 5.760539e-10
2.792752e-08 -1.304212e-08 5.734039e-09 -1.501893e-09 3.450710e-10 1.546112e-09
2.074731e-08 -6.153402e-09 4.935837e-09 -9.377106e-09 -2.595687e-09 6.308375e-09
1.662869e-08 -5.193152e-09 5.605216e-09 -7.458632e-09 -1.796972e-09 3.883224e-09
1.649614e-08 -4.661811e-09 2.739574e-09 -7.563063e-09 -4.716551e-10 4.594704e-09
2.983777e-08 -1.200354e-08 5.603310e-09 -5.336727e-09 -3.565278e-10 1.174049e-08
2.878840e-08 -1.195930e-08 1.663728e-08 -5.347625e-09 -1.086072e-09 1.089628e-08
2.140162e-08 -7.471583e-09 5.259515e-09 -8.494399e-09 -2.684909e-09 3.437318e-09
2.132372e-08 -8.568728e-09 8.854224e-09 -8.915843e-09 -3.498641e-09 2.530930e-09
2.176458e-09 6.816034e-09 -2.712702e-09 -4.994396e-09 -5.982788e-11 -1.290082e-09
1.112430e-08 6.565679e-09 -4.956817e-10 -6.629174e-09 -7.677320e-10 3.185883e-09
1.538175e-08 7.477509e-10 -2.693368e-10 -6.285644e-09 -1.382036e-09 4.016296e-09
3.132296e-09 3.599459e-09 -9.893086e-11 -4.024534e-09 -7.080713e-10 7.562623e-10
9.376380e-09 1.826977e-10 -1.792679e-09 -4.420520e-09 -4.129280e-10 9.622247e-10
-1.209710e-09 1.553454e-09 -7.952927e-11 -4.741842e-10 -5.193224e-11 4.885359e-11
-1.010816e-09 1.490963e-09 -9.837464e-11 -6.219354e-10 -1.000846e-10 -3.026079e-11
-4.717258e-10 1.234665e-09 -1.806071e-10 -6.271974e-10 -8.404588e-11 -4.762435e-11
-9.596413e-10 1.173169e-09 -1.433191e-10 -4.253145e-10 -9.790702e-11 -4.235146e-11
-1.754968e-09 1.049877e-09 2.204539e-10 5.880807e-11 6.805634e-11 -3.622097e-11
-2.016603e-09 1.230053e-09 2.425007e-10 1.284928e-11 4.898237e-11 1.835321e-11
-1.875867e-09 7.191199e-09 -1.060761e-08 1.967093e-09 -1.089753e-09 7.619301e-10
-2.136728e-09 1.246343e-09 2.712992e-10 1.438358e-10 7.793588e-11 8.809764e-11
-2.020036e-09 1.263619e-09 2.314817e-10 2.207838e-10 6.189793e-11 -1.905220e-11
-1.885987e-09 1.121701e-09 2.355689e-10 3.828804e-10 9.523415e-11 7.196210e-11
-1.699142e-09 9.160415e-10 2.221143e-10 2.083671e-10 5.255973e-11 8.848700e-12
-7.469787e-09 9.363813e-09 2.387174e-09 3.478752e-09 -2.103521e-09 -4.133672e-10
-1.822293e-09 1.312353e-09 2.306333e-10 3.505498e-10 5.217538e-11 -2.464207e-11
-3.975595e-09 6.289191e-09 -7.552947e-09 1.310842e-10 -1.256923e-09 1.411056e-09
-3.849498e-09 -6.114243e-09 1.970099e-09 3.629316e-09 7.761223e-10 -2.417775e-10
-5.006867e-09 -4.801238e-09 2.239299e-09 2.860056e-09 4.105399e-10 -2.322091e-10
-4.996899e-09 -4.122725e-09 1.902777e-09 3.004567e-09 7.357797e-10 -2.641674e-10
-5.642758e-09 -4.979108e-09 2.253409e-09 3.990897e-09 1.175272e-09 -1.178320e-10
-3.729505e-09 -4.653896e-09 1.023165e-09 4.707673e-09 1.438498e-09 -2.810595e-10
-7.183472e-10 1.271054e-09 -1.724576e-10 -9.312289e-10 -9.273959e-11 -9.291168e-11
-1.001105e-09 1.436615e-09 -9.893331e-11 -6.065766e-10 -7.752876e-11 -4.315359e-11
-1.058067e-09 1.346954e-09 -1.070304e-10 -3.950610e-10 2.582741e-11 -1.276490e-11
-7.325309e-10 1.117778e-09 -1.466081e-10 -5.692599e-10 -1.176357e-10 -5.198103e-11
-6.711653e-10 1.134775e-09 -1.708416e-10 -9.479679e-10 -1.910783e-11 -1.290172e-10
-8.251542e-10 1.284466e-09 -1.171125e-10 -5.705529e-10 -1.150857e-12 -1.222271e-10
-7.809642e-09 8.017071e-10 7.226055e-10 -3.808349e-09 -3.272865e-09 -8.848944e-10
-8.054926e-09 3.791870e-09 -7.487782e-10 -2.493700e-09 -2.270165e-09 -6.478782e-10
-7.234826e-09 -1.011705e-09 3.458878e-10 -3.525247e-09 -3.289653e-09 -1.098264e-09
-7.325011e-09 8.129160e-10 -3.278355e-10 -3.727107e-09 -3.200959e-09 -7.606314e-10
-7.872444e-09 2.173536e-09 -1.293775e-09 -3.912905e-09 -3.215716e-09 -1.373878e-09
2.820496e-08 -9.041922e-09 -2.456462e-09 4.325776e-11 2.694394e-10 2.106778e-09
2.822080e-08 -9.121249e-09 2.054339e-10 -7.251060e-11 2.939308e-10 1.440161e-09
7.721594e-09 4.034203e-09 -2.399371e-09 6.836864e-10 1.766363e-09 2.958452e-10
3.141792e-08 -9.056050e-09 -3.328087e-09 -5.530597e-10 -4.104501e-10 4.671752e-09
3.064829e-08 -6.009968e-09 -4.647881e-09 3.136505e-09 1.762109e-09 6.005061e-09
2.689719e-08 -5.555988e-09 -1.094264e-09 -6.082773e-11 3.122469e-10 2.038824e-09
2.501438e-08 -6.944191e-09 -1.754399e-09 2.111019e-09 -1.839905e-11 2.496139e-09
-5.936919e-09 -2.833971e-09 1.518600e-09 1.262400e-09 1.119870e-09 -4.960693e-10
-5.177448e-09 -2.838262e-09 3.766236e-10 2.350412e-09 8.615080e-10 -5.401495e-10
-5.087632e-09 -2.714223e-09 1.632680e-09 2.744961e-09 1.595962e-09 -1.022885e-10
-8.799869e-09 9.536163e-09 -2.979730e-10 3.238074e-09 4.961895e-10 1.192581e-09
-3.916375e-09 -6.069604e-09 1.708566e-09 3.057277e-09 9.829697e-10 -3.856736e-10
-5.014755e-09 -4.708305e-09 1.962802e-09 1.479386e-09 9.438086e-10 1.195729e-10
-2.198892e-09 1.241454e-09 2.844933e-10 2.992890e-10 5.284362e-11 8.800172e-11
-2.316423e-09 1.371523e-09 2.899905e-10 2.358980e-10 3.307865e-11 -1.231126e-12
-1.643579e-09 9.347421e-10 2.262772e-10 1.634213e-10 8.298873e-11 -1.292038e-10
-2.575238e-09 1.408962e-09 2.945035e-10 1.536142e-10 6.776579e-11 -7.170153e-11
-2.044901e-09 1.222130e-09 2.958822e-10 3.332472e-10 3.926126e-11 -1.042857e-10
-2.197369e-09 1.279298e-09 3.253744e-10 3.968865e-10 8.055016e-11 -4.979128e-11
-3.188391e-09 1.105667e-08 -7.851814e-09 -1.105390e-08 1.800978e-09 2.523533e-09
-2.217277e-09 1.238116e-08 2.492199e-09 -1.224034e-08 1.506058e-09 1.336071e-09
-3.473311e-10 8.836923e-09 2.968767e-09 -1.213630e-08 1.900585e-09 3.445587e-10
-7.146612e-10 1.365550e-09 -7.820944e-11 -2.052353e-09 1.189471e-11 6.300649e-11
2.440370e-09 6.452045e-09 2.253200e-09 -1.347493e-08 1.884748e-09 7.299780e-11
-1.462112e-09 8.773836e-09 1.784687e-09 -1.261179e-08 1.639981e-09 1.367270e-09
3.587168e-09 -1.836537e-09 -5.812886e-10 -3.857290e-10 -6.778700e-11 4.853007e-12
3.832415e-09 -2.016407e-09 -5.749281e-10 -3.804002e-10 -2.357975e-11 6.855916e-11
3.196904e-09 -1.682424e-09 -5.428989e-10 -7.165801e-10 -3.384823e-11 -8.566425e-11
3.935623e-09 -2.082263e-09 -6.063217e-10 -5.531248e-10 -2.482406e-11 -7.087449e-12
3.805884e-09 -1.670617e-09 -5.887643e-10 -7.867481e-10 -1.100501e-10 3.648526e-11
3.719506e-09 -2.059069e-09 -5.578954e-10 -4.814591e-10 -9.011983e-11 3.455558e-11
-4.294844e-09 2.413705e-09 -6.683898e-10 -1.239886e-09 -1.443894e-10 -1.776219e-10
-4.156401e-09 1.729378e-09 6.224576e-11 -9.967598e-10 -7.547829e-11 -1.501865e-10
-4.207049e-09 2.237300e-09 -2.508407e-10 -1.370983e-09 -3.773766e-10 2.485256e-11
-4.180587e-09 1.693021e-09 1.990301e-10 -1.035581e-09 -5.917800e-11 -8.289913e-11
4.127175e-09 -2.214660e-09 -6.114966e-10 8.477796e-11 1.584838e-11 7.127299e-12
4.074953e-09 -2.238230e-09 -5.943344e-10 1.663208e-10 1.243954e-11 8.262835e-11
3.811119e-09 -2.165999e-09 -5.947707e-10 3.924633e-10 -3.922286e-12 -3.205153e-11
4.338248e-09 -2.381767e-09 -6.398007e-10 4.644608e-10 1.982525e-12 -7.690398e-11
4.387909e-09 -2.445919e-09 -6.068133e-10 2.072197e-10 7.263715e-11 5.674261e-11
4.181814e-09 -2.272530e-09 -6.180532e-10 7.792137e-11 -2.235842e-11 6.255196e-11
4.071241e-09 -2.256538e-09 -6.047252e-10 -2.597175e-11 1.618783e-11 4.815526e-11
4.171294e-09 -2.350866e-09 -6.161112e-10 6.956180e-11 4.603828e-11 7.477352e-13
4.626608e-09 -2.353163e-09 -5.948673e-10 4.854175e-11 3.792784e-11 1.219619e-10
-1.565623e-09 1.310029e-08 -1.640853e-08 -5.887668e-10 -1.875424e-09 1.261913e-09
-1.676652e-09 1.037606e-09 2.386413e-10 2.473197e-10 -1.103129e-11 2.910472e-11
-1.799124e-09 1.048598e-09 2.523768e-10 5.875274e-10 7.349032e-11 -9.194223e-11
-1.722970e-09 9.637935e-10 1.979190e-10 5.695817e-10 5.722087e-13 -1.330405e-10
-1.899831e-09 1.102319e-09 2.487517e-10 3.394347e-10 1.199929e-12 -1.142866e-10
-2.143475e-09 1.191637e-09 2.389675e-10 4.579141e-10 4.803113e-11 -3.527756e-11
-2.033653e-09 1.205952e-09 2.745906e-10 4.009332e-10 6.133976e-11 -3.931280e-11
1.873568e-09 -3.596716e-09 -1.063299e-08 -9.731010e-09 2.048123e-09 5.418706e-10
-3.729014e-09 3.245671e-09 -5.251210e-09 -8.384291e-09 2.124197e-09 1.504852e-09
-7.345412e-09 4.846579e-09 -2.681707e-09 -3.537511e-09 8.691403e-11 1.515719e-10
-3.635722e-09 -3.600378e-10 -5.287919e-09 -8.440162e-09 1.609869e-09 1.555630e-09
1.795353e-10 -2.771924e-09 -7.457049e-09 -9.444998e-09 3.847442e-10 -6.009198e-10
-2.258618e-09 -9.290511e-10 -5.800688e-09 -8.805098e-09 1.932673e-09 1.616917e-09
5.799059e-09 -1.315803e-08 -5.113070e-09 -4.926225e-09 -3.079530e-09 -3.990379e-10
3.918476e-09 -1.323022e-08 -3.029571e-09 -3.295095e-09 -2.521498e-09 -5.295377e-10
3.995081e-09 -1.143507e-08 -4.951009e-09 -3.834564e-09 -2.752945e-09 -5.149907e-11
4.575472e-09 -1.018258e-08 -7.872302e-09 -5.902679e-09 -2.054164e-09 -8.544067e-10
4.003103e-09 -1.139877e-08 -2.651420e-09 -3.816988e-09 -1.228953e-09 5.127454e-10
2.589251e-09 -1.081289e-08 -4.115581e-09 -3.970903e-09 -1.470774e-09 -9.318550e-10
1.611333e-10 7.100747e-10 -2.577734e-10 -1.156494e-09 -1.674851e-10 -8.939893e-11
1.299920e-10 6.179066e-10 -2.111982e-10 -7.100449e-10 3.022249e-12 -4.539746e-11
6.485048e-10 5.073684e-10 -2.758300e-10 -9.214727e-10 -2.773648e-11 9.656609e-12
6.772238e-10 2.753646e-10 -3.248442e-10 -1.073738e-09 -1.361113e-10 -7.586540e-11
-6.699264e-09 -5.030039e-10 -2.822198e-09 -3.628289e-09 -2.169061e-09 -1.142430e-09
-6.991646e-09 2.069089e-09 -3.636563e-09 -3.494220e-09 -2.184316e-09 -5.223191e-10
-7.119549e-09 8.956693e-10 -1.799476e-09 -2.484374e-09 -1.019443e-09 -5.673384e-10
-5.610734e-09 -5.973266e-11 -2.781936e-09 -4.099212e-09 -3.589617e-11 1.819742e-10
-1.290391e-09 1.705480e-09 -9.334844e-11 -1.802497e-10 -4.152012e-11 -2.812933e-11
-1.170434e-09 1.465944e-09 -9.894352e-11 -5.308525e-10 -1.039293e-10 -1.434963e-11
-1.234573e-09 1.707534e-09 -1.106275e-10 -3.251701e-10 -4.333484e-11 -6.066003e-11
-3.827809e-09 7.682041e-09 -1.431839e-08 -7.385996e-09 -1.121829e-09 -7.386600e-10
-1.583023e-09 1.755973e-09 -9.353074e-11 -3.743263e-10 -3.577583e-11 -7.967094e-11
1.429365e-09 -9.704349e-09 2.381738e-09 -2.531872e-09 3.532616e-10 -1.611685e-10
2.706304e-09 -1.291637e-08 2.394161e-09 -2.392075e-09 -7.737755e-11 -2.180264e-11
1.631323e-09 -1.022642e-08 1.795916e-09 -2.882740e-09 7.016797e-10 -2.103528e-11
2.667789e-09 -1.080305e-08 1.763524e-09 -2.936249e-09 1.083191e-10 -8.749591e-11
2.659378e-09 -1.173255e-08 2.109169e-09 -2.710755e-09 4.553031e-10 -2.335654e-11
1.943220e-09 -9.611574e-10 -3.610339e-10 7.709997e-10 4.390599e-11 2.340435e-10
-5.151242e-09 -5.282747e-09 1.020784e-09 -2.953530e-09 -1.576102e-09 -6.230962e-10
-3.041772e-09 -4.350657e-09 1.861947e-09 -4.230448e-09 -4.806653e-10 -6.529303e-10
-3.114190e-09 -5.731104e-09 8.090684e-10 -2.557982e-09 -8.747354e-10 -6.029213e-10
-4.756586e-09 -3.570824e-09 1.970109e-09 -2.089582e-09 -1.409459e-09 8.093526e-11
-4.898481e-09 -5.475399e-09 1.810972e-09 -3.128926e-09 -1.833494e-09 -1.735165e-10
-3.033929e-09 -8.945125e-09 -4.671450e-10 -3.707381e-09 -3.174423e-09 -9.994047e-10
-1.673156e-09 9.007914e-10 1.503511e-10 2.217106e-10 9.889556e-11 4.916489e-11
-3.355338e-09 2.901307e-09 -6.655303e-10 -3.038326e-09 -7.320189e-11 -2.959017e-10
-2.923146e-09 3.374858e-09 -8.871011e-10 -3.947831e-09 -5.766996e-10 3.725746e-10
-4.127602e-09 2.823677e-09 -9.353274e-10 -2.181025e-09 -3.372208e-10 1.815734e-10
-3.228256e-09 3.141861e-09 -9.694840e-10 -2.793949e-09 -1.502234e-10 -1.745970e-10
-3.430352e-09 3.875684e-09 -1.113252e-09 -3.664011e-09 -4.542848e-10 6.007521e-10
-5.522092e-08 -2.610204e-08 1.288747e-07 -2.305376e-09 -4.092506e-09 -8.486438e-10
-4.184919e-08 -1.158978e-08 1.083949e-07 -1.188244e-08 -1.611823e-08 3.056855e-09
-5.306975e-08 -2.814750e-08 1.267891e-07 2.843123e-09 -1.369184e-09 -2.879150e-09
-4.952615e-08 -1.146423e-08 1.615411e-07 7.734938e-09 -1.733406e-08 -1.102107e-08
-4.954005e-08 -2.211273e-08 1.322548e-07 -2.026747e-09 -7.147292e-09 1.620254e-09
-8.986108e-09 6.009396e-09 -1.449437e-09 4.308378e-09 3.194689e-09 -1.583367e-09
-9.326459e-09 6.078709e-09 -1.407577e-09 4.204424e-09 3.121418e-09 -1.606384e-09
-1.011924e-08 6.990039e-09 -2.464133e-09 9.026779e-09 4.159285e-09 -3.487082e-09
7.973977e-11 -1.012257e-11 -6.608047e-12 9.054613e-10 1.419846e-10 -5.170531e-12
-1.003044e-08 1.047602e-08 -5.024708e-09 7.355951e-09 4.672677e-09 -5.103203e-09
-8.751403e-09 7.049045e-09 -1.279936e-09 3.108736e-09 2.690577e-09 -9.145720e-10
-7.768994e-09 1.031540e-08 -3.764529e-09 1.860156e-09 3.239162e-09 -2.436099e-09
2.647553e-09 -1.171617e-09 -3.807896e-10 1.654258e-09 -3.288786e-11 2.678615e-11
2.872976e-09 -1.482628e-09 -4.119656e-10 1.546246e-09 -7.052048e-11 -1.170037e-10
2.504136e-09 -1.171628e-09 -3.672502e-10 1.193540e-09 -5.377432e-11 -1.442779e-11
2.013445e-09 -9.595544e-10 -2.936211e-10 1.422935e-09 -2.517709e-11 8.514300e-12
7.214431e-10 -9.823650e-09 -1.226693e-09 1.933922e-09 -7.689256e-10 3.061540e-10
-1.146884e-09 -5.620537e-09 -1.382699e-09 2.435726e-09 -4.248074e-10 4.143246e-10
5.853955e-10 -7.006545e-09 -8.360148e-10 1.792459e-09 -5.527871e-10 6.445510e-12
-8.083387e-09 1.401336e-08 -6.630299e-09 -6.166137e-09 3.065058e-09 3.014639e-09
-1.096574e-09 -5.206475e-09 -3.670531e-09 3.469287e-09 -1.557173e-09 5.858010e-10
-1.079901e-09 -5.088124e-09 -2.297252e-09 3.355405e-09 -2.048664e-09 1.307812e-09
6.801142e-10 -7.539678e-09 -1.881466e-09 2.109544e-09 2.037708e-10 -3.541899e-10
1.749730e-09 -8.466648e-09 -1.545781e-09 3.070862e-09 -1.600637e-09 1.216136e-09
6.802963e-10 -1.072793e-08 -1.862757e-10 3.391156e-09 -2.116795e-09 1.276873e-09
1.080835e-09 -8.078071e-09 -1.966463e-09 3.492722e-09 -2.134662e-09 4.379411e-10
-3.086643e-09 1.277762e-09 5.767711e-10 3.009148e-10 2.336131e-11 2.296510e-12
-3.096443e-09 1.318844e-09 5.537537e-10 3.757871e-10 4.555378e-11 -8.963341e-11
-3.100531e-09 1.218850e-09 5.699352e-10 1.598132e-10 3.022330e-11 -3.017434e-11
2.014556e-09 -9.595140e-10 -3.267226e-10 1.423182e-09 3.547029e-11 1.898655e-10
1.644942e-09 -7.656960e-10 -2.824514e-10 1.093425e-09 5.584821e-11 -1.960736e-10
1.725515e-09 -7.259771e-10 -2.478742e-10 1.608639e-09 9.735279e-11 1.957674e-10
3.346961e-09 -1.537599e-09 -5.778720e-10 -8.940892e-10 -3.288880e-11 2.517453e-11
3.310532e-09 -1.647365e-09 -5.513918e-10 -9.631477e-10 -1.202522e-10 -3.830047e-12
3.981326e-09 -1.839917e-09 -5.977943e-10 -1.050280e-09 -6.590295e-11 7.898309e-11
3.369093e-09 -1.463786e-09 -6.076215e-10 -9.474650e-10 5.771128e-11 7.831347e-12
3.633600e-09 -1.767272e-09 -5.823417e-10 -4.388623e-10 1.491884e-11 -1.181758e-10
4.107143e-09 -2.031210e-09 -6.266450e-10 -5.102916e-10 -1.488745e-11 7.865908e-11
3.984443e-09 -2.141070e-09 -6.133138e-10 -6.458623e-10 2.489564e-12 -1.578271e-11
1.273964e-08 -7.536346e-10 1.024600e-08 1.425188e-08 7.094159e-10 6.483118e-09
1.362912e-08 -1.003663e-08 4.078782e-08 1.600476e-08 4.440225e-09 6.103251e-09
1.749160e-08 -1.004568e-08 1.525753e-08 1.266872e-08 3.362267e-09 4.412123e-09
1.473621e-08 -4.886869e-09 1.946358e-08 1.366808e-08 2.714086e-09 7.980356e-09
4.512838e-09 -1.980857e-09 -7.506777e-10 -1.233955e-09 3.741896e-11 1.203397e-10
3.377846e-09 -1.642629e-09 -5.645964e-10 -1.518744e-09 2.266831e-11 1.507723e-10
4.223513e-09 -2.056596e-09 -7.014149e-10 -1.506180e-09 3.329581e-11 -7.914713e-11
3.678148e-09 -1.666413e-09 -5.883254e-10 -1.263650e-09 4.663736e-11 -7.028578e-11
-5.209502e-09 -1.448223e-09 -2.898931e-09 -4.472650e-09 -1.235019e-09 -3.819772e-10