# vtk DataFile Version 2.0
Simplicial Mesh Example
ASCII
DATASET UNSTRUCTURED_GRID
POINTS 955 double
1.739130e+04 -4.000000e+05 0.000000e+00
3.431474e+04 -3.668361e+05 0.000000e+00
5.217391e+04 -4.000000e+05 0.000000e+00
-3.668348e+05 1.033122e+05 0.000000e+00
3.693733e+05 -3.529960e+05 0.000000e+00
-4.000000e+05 8.695652e+04 0.000000e+00
-2.962358e+05 -3.323448e+05 0.000000e+00
-3.357456e+05 -3.422369e+05 0.000000e+00
-2.772919e+05 -3.669732e+05 0.000000e+00
3.335574e+05 -1.858748e+05 0.000000e+00
3.000000e+05 -1.659466e+05 0.000000e+00
-1.716829e+05 -3.668361e+05 0.000000e+00
-1.913043e+05 -4.000000e+05 0.000000e+00
2.061857e+05 3.668333e+05 0.000000e+00
1.565217e+05 4.000000e+05 0.000000e+00
1.716839e+05 3.668365e+05 0.000000e+00
1.913043e+05 4.000000e+05 0.000000e+00
-8.695652e+04 4.000000e+05 0.000000e+00
-6.863978e+04 3.668364e+05 0.000000e+00
8.695652e+04 -4.000000e+05 0.000000e+00
6.864043e+04 -3.668360e+05 0.000000e+00
-1.217391e+05 -4.000000e+05 0.000000e+00
-1.373218e+05 -3.668365e+05 0.000000e+00
-1.565217e+05 -4.000000e+05 0.000000e+00
-3.668349e+05 1.375908e+05 0.000000e+00
-4.000000e+05 1.565217e+05 0.000000e+00
3.668265e+05 -1.714683e+05 0.000000e+00
4.000000e+05 -1.913043e+05 0.000000e+00
4.000000e+05 -1.565217e+05 0.000000e+00
4.000000e+05 1.565217e+05 0.000000e+00
3.668383e+05 1.722952e+05 0.000000e+00
4.000000e+05 -8.695652e+04 0.000000e+00
3.668372e+05 -1.026508e+05 0.000000e+00
4.000000e+05 -5.217391e+04 0.000000e+00
3.668380e+05 -6.826645e+04 0.000000e+00
-1.666667e+05 -3.000000e+05 0.000000e+00
3.334882e+05 -2.202831e+05 0.000000e+00
3.000000e+05 -1.994599e+05 0.000000e+00
-1.862587e+05 -3.335758e+05 0.000000e+00
-5.217391e+04 4.000000e+05 0.000000e+00
-1.739130e+04 4.000000e+05 0.000000e+00
-3.431405e+04 3.668365e+05 0.000000e+00
-1.716148e+05 3.668263e+05 0.000000e+00
-1.913043e+05 4.000000e+05 0.000000e+00
-2.059314e+05 3.667832e+05 0.000000e+00
3.316724e+05 -2.967750e+05 0.000000e+00
3.666108e+05 -2.775848e+05 0.000000e+00
3.397681e+05 -3.369212e+05 0.000000e+00
-3.335738e+05 1.866432e+05 0.000000e+00
-3.000000e+05 1.673499e+05 0.000000e+00
-3.000000e+05 2.005124e+05 0.000000e+00
-3.335722e+05 1.528704e+05 0.000000e+00
2.962288e+05 3.323792e+05 0.000000e+00
2.772894e+05 3.669850e+05 0.000000e+00
3.357389e+05 3.423035e+05 0.000000e+00
-3.422611e+05 3.357632e+05 0.000000e+00
-3.323575e+05 2.962961e+05 0.000000e+00
-3.669772e+05 2.773495e+05 0.000000e+00
-3.000000e+05 1.341874e+05 0.000000e+00
-3.335717e+05 1.191216e+05 0.000000e+00
3.668370e+05 3.487991e+04 0.000000e+00
3.668382e+05 4.985393e+02 0.000000e+00
4.000000e+05 1.739130e+04 0.000000e+00
3.335703e+05 -1.518628e+05 0.000000e+00
3.335746e+05 -1.178848e+05 0.000000e+00
3.000000e+05 -1.324332e+05 0.000000e+00
-1.185180e+05 -3.335740e+05 0.000000e+00
-1.333333e+05 -3.000000e+05 0.000000e+00
-1.000000e+05 -3.000000e+05 0.000000e+00
4.000000e+05 8.695652e+04 0.000000e+00
3.668311e+05 6.925743e+04 0.000000e+00
-6.666667e+04 -3.000000e+05 0.000000e+00
-8.466381e+04 -3.335739e+05 0.000000e+00
-5.081027e+04 -3.335738e+05 0.000000e+00
-1.092350e+01 -3.668362e+05 0.000000e+00
-1.523098e+05 3.335679e+05 0.000000e+00
-1.666667e+05 3.000000e+05 0.000000e+00
-1.861609e+05 3.335431e+05 0.000000e+00
-1.184568e+05 3.335728e+05 0.000000e+00
-1.333333e+05 3.000000e+05 0.000000e+00
-3.668344e+05 6.903915e+04 0.000000e+00
-4.000000e+05 5.217391e+04 0.000000e+00
-3.668332e+05 3.476756e+04 0.000000e+00
3.667880e+05 2.064991e+05 0.000000e+00
4.000000e+05 1.913043e+05 0.000000e+00
4.000000e+05 2.260870e+05 0.000000e+00
3.668383e+05 -3.388371e+04 0.000000e+00
1.695789e+04 3.335742e+05 0.000000e+00
3.333333e+04 3.000000e+05 0.000000e+00
5.081153e+04 3.335742e+05 0.000000e+00
-6.866241e+04 -3.668363e+05 0.000000e+00
-5.217391e+04 -4.000000e+05 0.000000e+00
-3.433659e+04 -3.668363e+05 0.000000e+00
8.466523e+04 3.335742e+05 0.000000e+00
6.666667e+04 3.000000e+05 0.000000e+00
-3.650927e+05 -2.750990e+05 0.000000e+00
1.373228e+05 3.668367e+05 0.000000e+00
-1.029893e+05 -3.668364e+05 0.000000e+00
-2.061853e+05 -3.668319e+05 0.000000e+00
3.679246e+05 -3.150758e+05 0.000000e+00
4.000000e+05 -2.956522e+05 0.000000e+00
-3.668488e+05 -6.807684e+04 0.000000e+00
-3.668495e+05 -1.024032e+05 0.000000e+00
-3.777286e+05 3.768122e+05 0.000000e+00
-3.731516e+05 3.486385e+05 0.000000e+00
8.460407e+04 -3.335732e+05 0.000000e+00
1.000000e+05 -3.000000e+05 0.000000e+00
1.184575e+05 -3.335722e+05 0.000000e+00
-4.000000e+05 -2.608696e+05 0.000000e+00
-3.668282e+05 4.980022e+02 0.000000e+00
3.000000e+05 1.620150e+03 0.000000e+00
1.523100e+05 -3.335678e+05 0.000000e+00
1.666667e+05 -3.000000e+05 0.000000e+00
1.861576e+05 -3.335456e+05 0.000000e+00
-2.411432e+05 -3.668207e+05 0.000000e+00
-2.260870e+05 -4.000000e+05 0.000000e+00
-3.328022e+05 -2.535374e+05 0.000000e+00
2.260870e+05 4.000000e+05 0.000000e+00
3.335746e+05 5.195984e+04 0.000000e+00
3.000000e+05 6.864685e+04 0.000000e+00
3.000000e+05 3.513350e+04 0.000000e+00
3.335698e+05 8.592243e+04 0.000000e+00
4.000000e+05 -1.217391e+05 0.000000e+00
3.335767e+05 -1.597580e+04 0.000000e+00
3.000000e+05 -3.189320e+04 0.000000e+00
4.000000e+05 -1.739130e+04 0.000000e+00
-3.335594e+05 2.207671e+05 0.000000e+00
-3.246449e+05 -3.150201e+05 0.000000e+00
-3.608008e+05 -3.135540e+05 0.000000e+00
-3.306775e+05 -2.872043e+05 0.000000e+00
-2.333333e+05 -3.000000e+05 0.000000e+00
-2.558329e+05 -3.333551e+05 0.000000e+00
-2.204932e+05 -3.335596e+05 0.000000e+00
-2.000000e+05 -3.000000e+05 0.000000e+00
1.333333e+05 -3.000000e+05 0.000000e+00
-3.000000e+05 -2.326501e+05 0.000000e+00
-3.334238e+05 -2.194600e+05 0.000000e+00
3.667086e+05 -2.411486e+05 0.000000e+00
3.331504e+05 -2.559007e+05 0.000000e+00
2.000000e+05 3.000000e+05 0.000000e+00
1.862602e+05 3.335762e+05 0.000000e+00
2.204925e+05 3.335627e+05 0.000000e+00
2.000000e+05 -3.000000e+05 0.000000e+00
3.000000e+05 2.018902e+05 0.000000e+00
3.334338e+05 2.210121e+05 0.000000e+00
-4.000000e+05 -2.260870e+05 0.000000e+00
-3.664180e+05 -2.401224e+05 0.000000e+00
-3.667926e+05 -2.056104e+05 0.000000e+00
-3.668215e+05 2.412511e+05 0.000000e+00
-4.000000e+05 2.260870e+05 0.000000e+00
3.000000e+05 3.000000e+05 0.000000e+00
3.306623e+05 2.876205e+05 0.000000e+00
-5.074947e+04 3.335740e+05 0.000000e+00
-6.666667e+04 3.000000e+05 0.000000e+00
-8.460317e+04 3.335738e+05 0.000000e+00
-4.000000e+05 -1.565217e+05 0.000000e+00
-3.668386e+05 -1.711937e+05 0.000000e+00
-3.668436e+05 -1.367793e+05 0.000000e+00
3.336147e+05 1.538073e+05 0.000000e+00
2.260870e+05 -4.000000e+05 0.000000e+00
2.059253e+05 -3.667880e+05 0.000000e+00
2.402710e+05 -3.664674e+05 0.000000e+00
4.000000e+05 1.217391e+05 0.000000e+00
3.668342e+05 1.036336e+05 0.000000e+00
1.029661e+05 -3.668356e+05 0.000000e+00
1.217391e+05 -4.000000e+05 0.000000e+00
1.372913e+05 -3.668342e+05 0.000000e+00
4.000000e+05 2.956522e+05 0.000000e+00
3.650890e+05 2.754572e+05 0.000000e+00
3.607920e+05 3.136982e+05 0.000000e+00
-3.691108e+05 3.139776e+05 0.000000e+00
-4.000000e+05 2.956522e+05 0.000000e+00
-4.000000e+05 1.217391e+05 0.000000e+00
3.668347e+05 -1.370424e+05 0.000000e+00
3.667968e+05 -2.060541e+05 0.000000e+00
1.565217e+05 -4.000000e+05 0.000000e+00
-8.695652e+04 -4.000000e+05 0.000000e+00
3.000000e+05 1.021602e+05 0.000000e+00
3.335748e+05 1.198782e+05 0.000000e+00
3.433740e+04 3.668366e+05 0.000000e+00
1.739130e+04 4.000000e+05 0.000000e+00
1.166851e+01 3.668366e+05 0.000000e+00
1.185195e+05 3.335744e+05 0.000000e+00
1.333333e+05 3.000000e+05 0.000000e+00
1.523779e+05 3.335748e+05 0.000000e+00
1.666667e+05 3.000000e+05 0.000000e+00
4.000000e+05 -2.608696e+05 0.000000e+00
-3.333333e+04 -3.000000e+05 0.000000e+00
-1.695675e+04 -3.335737e+05 0.000000e+00
-3.702024e+05 -3.502584e+05 0.000000e+00
-4.000000e+05 -3.304348e+05 0.000000e+00
5.075044e+04 -3.335735e+05 0.000000e+00
3.335765e+05 -4.994471e+04 0.000000e+00
3.000000e+05 -6.540655e+04 0.000000e+00
3.335760e+05 -8.391401e+04 0.000000e+00
1.029903e+05 3.668367e+05 0.000000e+00
8.695652e+04 4.000000e+05 0.000000e+00
6.866331e+04 3.668366e+05 0.000000e+00
-3.335741e+05 -1.854110e+05 0.000000e+00
-3.335907e+05 -1.513473e+05 0.000000e+00
1.217391e+05 4.000000e+05 0.000000e+00
-1.029655e+05 3.668361e+05 0.000000e+00
-1.217391e+05 4.000000e+05 0.000000e+00
-1.372909e+05 3.668345e+05 0.000000e+00
-3.333582e+05 2.559979e+05 0.000000e+00
-1.565217e+05 4.000000e+05 0.000000e+00
-3.333333e+04 3.000000e+05 0.000000e+00
-1.689577e+04 3.335741e+05 0.000000e+00
4.000000e+05 -2.260870e+05 0.000000e+00
4.000000e+05 5.217391e+04 0.000000e+00
-3.000000e+05 -3.000000e+05 0.000000e+00
-2.666667e+05 -3.000000e+05 0.000000e+00
2.749236e+05 -3.652724e+05 0.000000e+00
2.956522e+05 -4.000000e+05 0.000000e+00
-2.260870e+05 4.000000e+05 0.000000e+00
3.246361e+05 3.151522e+05 0.000000e+00
-2.956522e+05 -4.000000e+05 0.000000e+00
-3.139562e+05 -3.691022e+05 0.000000e+00
-3.335708e+05 5.163284e+04 0.000000e+00
-3.000000e+05 6.786232e+04 0.000000e+00
-3.335713e+05 8.537688e+04 0.000000e+00
-3.502741e+05 3.702051e+05 0.000000e+00
-3.000000e+05 -1.653002e+05 0.000000e+00
3.139513e+05 3.691251e+05 0.000000e+00
2.956522e+05 4.000000e+05 0.000000e+00
3.668475e+05 1.379968e+05 0.000000e+00
1.716142e+05 -3.668268e+05 0.000000e+00
4.000000e+05 -3.652174e+05 0.000000e+00
4.000000e+05 -4.000000e+05 0.000000e+00
1.913043e+05 -4.000000e+05 0.000000e+00
-2.200076e+05 3.334178e+05 0.000000e+00
-2.000000e+05 3.000000e+05 0.000000e+00
3.486284e+05 3.731663e+05 0.000000e+00
3.701971e+05 3.502998e+05 0.000000e+00
-3.668327e+05 -3.377970e+04 0.000000e+00
3.000000e+05 1.356736e+05 0.000000e+00
-1.523763e+05 -3.335744e+05 0.000000e+00
-2.873505e+05 3.306746e+05 0.000000e+00
-3.000000e+05 3.000000e+05 0.000000e+00
3.000000e+05 -9.891990e+04 0.000000e+00
-4.000000e+05 -2.956522e+05 0.000000e+00
-2.956522e+05 4.000000e+05 0.000000e+00
-2.752247e+05 3.650898e+05 0.000000e+00
-3.136055e+05 3.608027e+05 0.000000e+00
-3.000000e+05 -2.663251e+05 0.000000e+00
-3.000000e+05 1.010248e+05 0.000000e+00
-3.000000e+05 2.336749e+05 0.000000e+00
[...]
POINT_DATA 955
VECTORS displacement double
9.939916e-04 0.000000e+00 1.099908e-04
9.642335e-04 -1.415679e-04 9.324802e-05
9.603899e-04 0.000000e+00 1.220394e-04
-1.802840e-04 1.228599e-03 -3.384351e-04
5.498082e-05 1.001057e-04 -3.873089e-06
0.000000e+00 1.008513e-03 -3.155172e-04
-5.358663e-04 -4.516141e-04 -1.158528e-04
-3.843430e-04 -1.487579e-04 2.091049e-05
-5.151142e-04 -3.047554e-04 3.588373e-06
-1.162908e-04 2.696144e-04 -5.235589e-05
-2.262025e-04 2.752213e-04 -6.219322e-05
-4.356008e-05 -6.741902e-04 -1.428278e-04
-1.797787e-04 0.000000e+00 -3.891307e-05
6.622110e-04 -2.552040e-05 1.123244e-04
8.395416e-04 0.000000e+00 1.501327e-04
7.786304e-04 -2.523929e-06 1.365826e-04
7.247330e-04 0.000000e+00 1.244008e-04
8.219235e-04 0.000000e+00 3.726023e-04
8.911305e-04 3.955346e-04 3.530199e-04
8.813225e-04 0.000000e+00 1.180866e-04
9.033445e-04 -5.540243e-05 1.026156e-04
3.817116e-04 0.000000e+00 -3.459605e-05
2.484767e-04 -6.796802e-04 -1.285862e-04
9.904293e-05 0.000000e+00 -4.712955e-05
-2.161009e-04 1.292310e-03 -2.202238e-04
0.000000e+00 1.191389e-03 -1.075528e-04
-6.790942e-05 2.470095e-04 -5.536483e-05
0.000000e+00 2.554189e-04 -4.873556e-05
0.000000e+00 2.291685e-04 -5.942916e-05
0.000000e+00 -3.062979e-04 -1.055419e-05
3.693566e-06 -3.050613e-04 -3.964912e-06
0.000000e+00 1.132297e-04 -7.243142e-05
-1.178857e-04 1.488088e-04 -7.181664e-05
0.000000e+00 3.423104e-05 -7.446568e-05
-1.311261e-04 7.417117e-05 -7.524744e-05
-8.689907e-05 -2.480734e-03 -9.410521e-04
-5.425823e-05 2.744284e-04 -3.950481e-05
-1.357605e-04 2.932007e-04 -4.802510e-05
-2.042258e-04 -1.379439e-03 -4.142287e-04
9.510670e-04 0.000000e+00 3.487742e-04
1.039914e-03 0.000000e+00 3.212073e-04
9.980437e-04 3.300626e-04 3.259197e-04
3.944237e-04 4.866143e-04 4.037471e-04
3.104277e-04 0.000000e+00 4.216181e-04
2.276019e-04 4.722039e-04 4.126904e-04
7.210178e-05 2.077900e-04 -1.225194e-05
1.931190e-05 2.256940e-04 -2.104659e-05
9.916180e-05 1.352477e-04 -3.888890e-06
-3.659631e-04 1.596580e-03 -7.361942e-05
-5.581194e-04 2.216059e-03 -3.497114e-04
-4.426238e-04 1.950040e-03 -9.595684e-05
-4.215895e-04 1.712589e-03 -2.721537e-04
3.272728e-04 -1.138886e-04 6.534544e-05
4.148735e-04 -5.224399e-05 7.727482e-05
2.046748e-04 -1.056633e-04 5.763582e-05
-7.143394e-05 5.903137e-04 4.093848e-04
-1.272123e-04 9.394958e-04 3.468843e-04
-9.447608e-05 9.609509e-04 3.165109e-04
-6.509396e-04 2.509644e-03 -6.349032e-04
-4.241689e-04 1.779311e-03 -4.524433e-04
-1.115096e-04 -1.660439e-04 -6.174695e-05
-1.281975e-04 -9.053132e-05 -7.030605e-05
0.000000e+00 -1.296481e-04 -6.549336e-05
-1.732942e-04 2.397843e-04 -6.372311e-05
-2.224388e-04 1.879101e-04 -7.271156e-05
-3.122199e-04 2.315627e-04 -7.347995e-05
3.841401e-04 -1.393422e-03 -3.663527e-04
2.347023e-04 -2.452190e-03 -9.023535e-04
5.282334e-04 -2.190392e-03 -7.643340e-04
0.000000e+00 -2.547732e-04 -4.235190e-05
-8.874992e-05 -2.284061e-04 -4.967105e-05
7.227688e-04 -1.754280e-03 -5.716829e-04
6.383028e-04 -1.205451e-03 -2.825816e-04
8.137092e-04 -9.403041e-04 -1.799592e-04
9.673765e-04 -2.551567e-04 6.663591e-05
4.613575e-04 9.786451e-04 3.564819e-04
3.234312e-04 1.514779e-03 2.705800e-04
2.812317e-04 9.730509e-04 3.680922e-04
6.441962e-04 9.357638e-04 3.443260e-04
5.191096e-04 1.483201e-03 2.626762e-04
-6.372215e-05 1.109578e-03 -3.559275e-04
0.000000e+00 8.727617e-04 -2.912069e-04
1.633398e-04 9.568488e-04 -2.322207e-04
3.165120e-05 -2.920098e-04 1.197411e-05
0.000000e+00 -3.002993e-04 4.280946e-06
0.000000e+00 -2.784858e-04 1.850752e-05
-1.343000e-04 -8.007197e-06 -7.482293e-05
1.046338e-03 4.369056e-04 2.622001e-04
9.995980e-04 5.450077e-04 2.199122e-04
1.031748e-03 3.061248e-04 2.335246e-04
7.514299e-04 -5.193121e-04 -3.813883e-05
8.374857e-04 0.000000e+00 4.297988e-05
9.005189e-04 -3.880267e-04 1.958752e-05
9.800254e-04 1.909009e-04 2.028660e-04
9.567779e-04 3.571834e-04 1.976155e-04
-2.505143e-04 -9.207208e-06 -2.509526e-04
8.851590e-04 2.964346e-05 1.644792e-04
5.261528e-04 -6.251195e-04 -9.225453e-05
-2.893913e-04 -5.936558e-04 -1.164871e-04
4.212876e-05 1.708624e-04 -1.142081e-05
0.000000e+00 1.996132e-04 -1.641722e-05
5.516141e-04 5.940716e-04 1.045131e-04
3.734804e-04 4.556709e-04 -6.668593e-05
-2.200905e-05 2.026137e-04 4.311032e-04
-3.444977e-05 4.399799e-04 4.173475e-04
7.790630e-04 -4.328543e-05 6.411156e-05
5.888216e-04 2.394638e-05 2.311524e-05
6.739949e-04 5.499172e-05 6.739920e-05
0.000000e+00 1.372106e-04 -2.720101e-04
4.299388e-04 8.117787e-04 -1.595091e-05
-3.966350e-04 -8.559126e-05 -7.838811e-05
5.635164e-04 1.134887e-04 5.883776e-05
3.904547e-04 1.928954e-04 2.862206e-05
4.561478e-04 1.435376e-04 4.511196e-05
-4.554643e-04 -4.578795e-04 -5.920822e-05
-3.784175e-04 0.000000e+00 -8.422780e-06
-4.775284e-04 -4.301959e-04 -5.263009e-04
6.049012e-04 0.000000e+00 1.030633e-04
-2.023095e-04 -1.985574e-04 -5.864422e-05
-2.699713e-04 -2.274679e-04 -5.507547e-05
-3.446846e-04 -1.637385e-04 -6.839584e-05
-1.515683e-04 -2.522857e-04 -4.527677e-05
0.000000e+00 1.800907e-04 -6.762104e-05
-2.678436e-04 -4.752034e-05 -7.736077e-05
-4.204718e-04 1.356113e-06 -8.407147e-05
0.000000e+00 -4.927931e-05 -7.220619e-05
-2.880050e-04 1.436336e-03 9.950113e-05
-4.591018e-04 -3.050583e-04 -1.433247e-04
-2.611019e-04 -4.408470e-05 -5.770118e-05
-4.659266e-04 -3.483079e-04 -3.021620e-04
-5.809107e-04 -1.757388e-03 -7.205315e-04
-5.487913e-04 -8.530561e-04 -2.433674e-04
-4.301281e-04 -1.154238e-03 -3.521481e-04
-3.896775e-04 -2.223203e-03 -8.810817e-04
4.866711e-04 1.331699e-04 3.205862e-05
-7.058519e-04 -1.362166e-03 -9.759203e-04
-4.568682e-04 -5.324623e-04 -6.907930e-04
-1.033801e-05 2.572303e-04 -3.214561e-05
7.064678e-06 2.558113e-04 -2.600886e-05
5.868290e-04 -7.472406e-05 9.911853e-05
6.938526e-04 -2.953213e-05 1.193626e-04
5.792935e-04 -6.730687e-05 9.818428e-05
3.040109e-04 2.196377e-04 1.982843e-05
9.270374e-05 -2.796212e-04 1.631092e-05
8.799784e-05 -2.756164e-04 1.981420e-05
0.000000e+00 2.178720e-04 -4.164153e-04
-2.286377e-04 4.032194e-05 -4.204055e-04
-1.752965e-04 1.022265e-04 -5.241332e-04
-1.308350e-04 1.142951e-03 2.169355e-04
0.000000e+00 1.134156e-03 1.776204e-04
2.784343e-04 -1.640279e-04 5.601203e-05
1.793853e-04 -1.943496e-04 4.611025e-05
9.355367e-04 7.252041e-04 3.107772e-04
8.546504e-04 1.199864e-03 2.548518e-04
8.085873e-04 8.472828e-04 3.298308e-04
0.000000e+00 4.188334e-04 -4.251690e-04
-5.352687e-05 1.956993e-04 -4.954810e-04
1.517609e-04 3.051071e-04 -3.152128e-04
-2.648648e-05 -3.016374e-04 -1.225140e-05
4.206150e-04 0.000000e+00 4.112501e-05
4.637570e-04 7.657779e-05 4.813735e-05
3.597355e-04 8.019389e-05 3.132656e-05
0.000000e+00 -2.906694e-04 -2.736359e-05
-5.948219e-05 -2.739400e-04 -3.520682e-05
8.084702e-04 4.722643e-06 9.940453e-05
7.739914e-04 0.000000e+00 1.004611e-04
6.953075e-04 4.429111e-05 8.524456e-05
0.000000e+00 -1.910212e-04 4.277310e-05
8.257236e-05 -2.188107e-04 3.821734e-05
1.144947e-04 -1.590815e-04 4.878790e-05
-5.610195e-05 7.107414e-04 3.816203e-04
0.000000e+00 8.103134e-04 3.542691e-04
0.000000e+00 1.124670e-03 -2.417177e-04
-9.555852e-05 2.077261e-04 -6.460878e-05
-3.938424e-05 2.638457e-04 -4.418313e-05
6.540871e-04 0.000000e+00 8.090021e-05
6.415482e-04 0.000000e+00 3.277654e-07
-1.817445e-04 -2.691978e-04 -3.909264e-05
-9.014941e-05 -2.871287e-04 -2.976150e-05
1.069841e-03 1.885471e-04 2.636685e-04
1.076388e-03 0.000000e+00 2.847961e-04
1.057455e-03 2.573355e-04 2.968599e-04
9.005933e-04 9.689909e-05 1.725862e-04
7.940904e-04 8.032309e-05 1.459963e-04
8.024711e-04 2.401681e-05 1.443205e-04
6.923779e-04 -1.009617e-05 1.211277e-04
0.000000e+00 2.396782e-04 -2.646658e-05
8.183553e-04 -1.261777e-03 -3.661642e-04
9.025753e-04 -6.612983e-04 -8.236588e-05
-1.886684e-04 -1.587080e-05 8.202547e-05
0.000000e+00 2.407435e-05 3.139236e-05
8.645841e-04 -1.915233e-04 4.249819e-05
-2.719654e-04 3.742014e-05 -8.028357e-05
-4.128610e-04 8.883097e-05 -8.517936e-05
-2.566721e-04 1.183835e-04 -7.869799e-05
9.750904e-04 7.221764e-05 1.957988e-04
1.019603e-03 0.000000e+00 2.144849e-04
1.039695e-03 1.254995e-04 2.294662e-04
-3.054212e-04 -5.147252e-04 -6.800666e-04
-1.551075e-05 -4.163188e-04 -4.584147e-04
9.403427e-04 0.000000e+00 1.809210e-04
7.442877e-04 4.460083e-04 3.740528e-04
6.597714e-04 0.000000e+00 3.948917e-04
5.727418e-04 4.783807e-04 3.905984e-04
-2.084351e-04 1.238697e-03 2.351494e-04
4.818200e-04 0.000000e+00 4.090855e-04
9.546545e-04 9.865677e-04 2.491283e-04
1.015528e-03 5.857530e-04 2.885173e-04
0.000000e+00 2.587308e-04 -3.825979e-05
0.000000e+00 -1.997602e-04 -5.549989e-05
-5.769391e-04 -7.026567e-04 -3.501603e-04
-6.337148e-04 -1.190620e-03 -5.169923e-04
2.647100e-04 8.208260e-05 1.740468e-05
2.266767e-04 0.000000e+00 1.299344e-05
1.602916e-04 0.000000e+00 4.309333e-04
2.221972e-04 -1.494083e-04 5.423748e-05
-4.813105e-04 0.000000e+00 8.454712e-05
-4.465818e-04 -1.421596e-04 7.257691e-05
-7.205564e-05 1.769383e-03 -4.358278e-04
-4.820716e-04 3.018482e-03 -8.327697e-04
-3.145640e-04 1.801918e-03 -5.220445e-04
-4.307459e-05 2.716435e-04 4.287006e-04
-5.072647e-04 -1.949211e-03 -9.069643e-04
2.895741e-04 -5.487411e-05 6.596674e-05
3.588949e-04 0.000000e+00 7.246302e-05
-2.797055e-05 -2.993833e-04 -1.972693e-05
5.773703e-04 6.634512e-05 6.687589e-05
0.000000e+00 7.412912e-05 -4.189378e-06
0.000000e+00 0.000000e+00 -2.614342e-06
5.337227e-04 0.000000e+00 6.016985e-05
1.244312e-04 9.250490e-04 3.791861e-04
1.412731e-04 1.468456e-03 2.843371e-04
1.721288e-04 -5.059258e-05 5.937752e-05
9.625943e-05 -9.426993e-05 5.471133e-05
5.516640e-04 7.121396e-04 1.148022e-04
-8.722260e-05 -2.915919e-04 -2.088182e-05
8.720040e-05 -1.457329e-03 -4.094816e-04
-6.515822e-05 7.717148e-04 3.914421e-04
-1.331343e-04 1.051133e-03 3.369478e-04
-3.761142e-04 1.675736e-04 -8.101368e-05
0.000000e+00 7.482728e-05 -1.082815e-04
-1.876837e-05 0.000000e+00 4.360882e-04
1.650296e-07 4.122581e-04 4.239716e-04
-4.985675e-05 4.007434e-04 4.248263e-04
-6.608758e-04 -9.905477e-04 -6.604981e-04
-6.535469e-04 2.817319e-03 -8.462701e-04
-3.268497e-04 1.666886e-03 1.000616e-04
1.038378e-03 2.632990e-04 5.656605e-04
5.052865e-04 -1.043158e-04 4.736006e-05
7.078080e-05 0.000000e+00 -2.027051e-07
1.244633e-03 7.397174e-04 7.000791e-04
2.095883e-03 2.894866e-04 1.968807e-03
-3.814620e-05 0.000000e+00 4.344474e-04
1.977726e-03 1.516718e-03 1.604768e-03
1.030568e-03 1.149346e-03 4.270350e-04
5.403585e-04 -4.122759e-05 9.280431e-05
1.334604e-04 1.616919e-04 -1.648525e-06
1.110747e-04 6.512468e-05 -3.861564e-08
1.739506e-04 8.740580e-05 5.598681e-06
-2.313906e-04 1.367988e-03 2.408026e-04
0.000000e+00 1.001181e-03 2.819963e-04
-7.281235e-04 -1.811246e-03 -1.143265e-03
5.762484e-05 -2.624342e-04 2.608080e-05
0.000000e+00 -2.408862e-04 3.192491e-05
1.359535e-04 -2.404586e-04 3.425786e-05
3.184463e-04 0.000000e+00 2.535846e-05
1.928430e-04 1.559129e-04 5.749700e-06
2.697964e-04 1.559627e-04 1.679598e-05
1.668609e-04 2.203065e-04 1.197445e-06
2.286368e-04 2.221740e-04 9.611793e-06
3.570073e-04 1.543319e-04 2.980394e-05
4.875059e-06 8.509241e-04 3.849034e-04
4.323853e-05 2.581154e-04 -2.009507e-05
-4.342063e-05 2.853578e-04 -3.370694e-05
-2.066929e-04 1.307935e-03 -6.583735e-05
-1.741418e-04 1.259124e-03 8.692595e-05
3.792693e-04 -1.474012e-04 6.770308e-05
4.595443e-04 -9.317006e-05 8.071943e-05
4.800717e-04 -1.182523e-04 8.075321e-05
-4.820593e-04 0.000000e+00 4.124377e-05
0.000000e+00 1.196653e-03 4.355168e-05
-9.854878e-05 1.209216e-03 3.233589e-04
-1.464157e-06 1.364578e-03 3.021170e-04
-2.449090e-04 -1.287802e-04 -7.031609e-05
2.300366e-04 -2.117722e-04 4.444850e-05
1.682920e-04 -2.492277e-04 3.161508e-05
0.000000e+00 5.140738e-04 -2.698916e-04
4.937815e-05 0.000000e+00 4.352866e-04
-9.479895e-05 7.518780e-04 3.905832e-04
4.821447e-04 0.000000e+00 8.613708e-05
9.512138e-04 2.466159e-03 4.851568e-04
4.976180e-04 1.486080e-03 -3.592616e-05
4.087534e-05 2.978772e-03 -3.518763e-04
8.850424e-04 2.020290e-04 1.723565e-04
9.145583e-05 4.444158e-04 4.195311e-04
1.001218e-03 7.605544e-04 2.381472e-04
1.444314e-04 0.000000e+00 4.007108e-06
7.052288e-04 1.374447e-03 2.582391e-04
6.894103e-04 -1.557374e-04 -9.506872e-06
9.130265e-04 -3.943583e-04 -3.908280e-06
0.000000e+00 0.000000e+00 1.612116e-04
0.000000e+00 1.521104e-05 1.296339e-04
-1.474356e-04 -8.775291e-06 1.424677e-04
8.311358e-04 -8.021245e-04 -1.957185e-04
3.386112e-05 -2.973444e-04 4.443394e-06
0.000000e+00 5.689955e-04 4.012070e-04
-3.022762e-04 -4.612157e-05 1.171098e-04
-3.733050e-04 0.000000e+00 1.234163e-04
0.000000e+00 2.941163e-04 4.255720e-04
7.782971e-05 -4.282213e-05 5.673033e-05
2.368245e-04 0.000000e+00 6.355604e-05
0.000000e+00 7.537247e-04 -1.786802e-04
0.000000e+00 6.004525e-04 -1.055357e-04
0.000000e+00 6.479952e-04 -2.833086e-05
0.000000e+00 3.137448e-04 -4.792060e-04
0.000000e+00 1.413207e-04 -8.938827e-06
1.067579e-03 0.000000e+00 2.497863e-04
9.541979e-04 0.000000e+00 8.470147e-05
0.000000e+00 -1.307596e-04 5.051822e-05
0.000000e+00 6.889515e-04 -7.951932e-05
-2.090730e-04 0.000000e+00 1.486132e-04
0.000000e+00 0.000000e+00 4.326360e-04
1.181572e-04 0.000000e+00 5.833944e-05
7.771041e-04 -4.254158e-04 -7.847516e-05
0.000000e+00 -6.709806e-05 5.519859e-05
0.000000e+00 0.000000e+00 5.678362e-05
-2.879103e-05 0.000000e+00 4.331346e-04
1.142479e-04 2.080075e-04 -7.356709e-06
4.520651e-04 -1.360366e-03 5.257746e-04
1.204270e-04 -1.729272e-03 -1.065221e-04
7.203190e-04 -5.234599e-04 4.903319e-04
-1.228203e-05 -2.991812e-04 -7.357727e-06
2.217449e-05 -2.956973e-04 1.125600e-06
1.577796e-03 -2.452292e-04 1.656872e-03
1.062462e-03 -2.152473e-04 8.440530e-04
5.099552e-05 -2.878450e-04 7.373199e-06
-3.980275e-05 -2.948154e-04 -1.148391e-05
8.266317e-04 -7.300416e-04 7.670567e-04
6.702008e-04 -1.185809e-03 8.167166e-04
9.168088e-04 -9.486917e-04 1.114326e-03
-3.208384e-06 -2.969135e-04 -4.642753e-06
7.492322e-06 -2.939466e-04 -1.831540e-06
1.562525e-05 -2.949373e-04 -4.258334e-07
1.238816e-03 -5.891305e-04 1.408307e-03
1.028458e-03 -5.259679e-04 9.852630e-04
2.949655e-05 -2.912619e-04 2.696800e-06
-1.588383e-05 -2.948107e-04 -6.493269e-06
3.823760e-04 4.099011e-03 -1.229559e-03
4.402306e-04 2.609956e-03 -5.659386e-04
3.281951e-04 1.301028e-04 6.093895e-05
2.846651e-04 3.410963e-04 3.865999e-05
5.238088e-05 -2.528710e-04 1.127731e-05
7.796532e-06 -2.184671e-04 1.135740e-05
1.621673e-04 -1.419606e-04 3.557001e-05
3.259970e-04 -1.286513e-04 5.781211e-05
6.479141e-04 1.459057e-03 -7.841792e-05
1.755230e-04 1.147736e-03 -1.200463e-04
9.144536e-04 5.493388e-04 1.802130e-04
9.505011e-04 8.158066e-04 1.875114e-04
6.682636e-04 7.007332e-04 7.790854e-05
8.461002e-04 7.959740e-04 1.291433e-04
-8.456755e-04 3.784293e-03 -1.137180e-03
-1.476643e-03 5.473762e-02 -1.665027e-02
-1.119915e-03 2.150251e-02 -7.490838e-03
-1.997467e-03 3.424561e-02 -1.064713e-02
1.698969e-04 2.537623e-02 -9.241761e-03
9.394501e-04 1.112326e-03 1.860504e-04
8.764437e-04 1.420991e-03 1.711415e-04
7.514375e-04 1.698358e-03 1.529187e-04
-9.107703e-04 4.531002e-03 -1.428058e-03
-3.869632e-04 3.806350e-03 -7.363950e-04
-1.011402e-04 3.222715e-03 -3.953713e-04
-1.240945e-04 4.239191e-03 -9.084692e-04
-4.194034e-04 4.992595e-03 -1.363777e-03
1.516928e-04 2.600784e-03 -8.261300e-05
8.452445e-04 3.284285e-04 1.635587e-04
7.561683e-04 1.542517e-04 1.418103e-04
2.277410e-04 6.477134e-04 -7.885060e-06
-2.831954e-03 2.338623e-02 -4.820594e-03
-1.170455e-03 1.007623e-02 -1.946723e-03
-1.288641e-03 7.675110e-03 -2.365284e-03
-1.826822e-03 1.365476e-02 -4.226351e-03
-2.043413e-03 5.917277e-02 -7.269827e-03
-2.045411e-03 2.017198e-02 -6.695414e-03
-8.546989e-04 1.880281e-02 -7.032668e-03
4.445074e-04 3.087263e-03 -3.607258e-04
6.333508e-04 2.657478e-03 -2.611438e-04
4.071248e-04 4.538380e-03 -1.275115e-03
1.909962e-04 -2.450764e-04 3.104787e-05
8.328296e-05 -2.718989e-04 1.334101e-05
2.282775e-05 5.335400e-03 -1.442829e-04
1.983873e-03 3.927934e-03 2.416644e-03
5.692956e-04 1.912860e-03 1.365090e-04
-7.576607e-04 5.251985e-03 -1.310033e-03
4.650737e-04 -1.286098e-04 7.794329e-05
5.596011e-04 -6.717336e-05 9.556300e-05
-3.027093e-04 1.224770e-03 -1.338584e-04
-1.548725e-04 6.673489e-04 -2.794697e-05
1.738931e-04 -2.012356e-04 3.237684e-05
1.890900e-04 -2.309028e-04 3.170998e-05
-7.083226e-04 3.137608e-03 -7.324732e-04
-5.504923e-04 2.599168e-03 -3.398129e-04
2.847551e-04 -2.072997e-04 4.903776e-05
5.908972e-04 3.011832e-03 -5.776088e-04
7.388700e-04 2.125083e-03 -1.473256e-04
6.584210e-04 2.441750e-05 1.177637e-04
-6.194595e-05 -1.620122e-04 1.034168e-05
-1.549677e-04 -6.751035e-05 9.499157e-06
1.232249e-04 -4.457314e-05 3.749655e-05
3.983419e-03 1.661126e-03 4.965989e-03
-4.256129e-04 2.850761e-03 -3.171100e-04
-3.987178e-04 2.171681e-03 -6.028007e-05
5.197324e-04 1.021383e-03 -2.656129e-05
4.647970e-04 5.925494e-04 3.897712e-05
3.919610e-04 -1.622011e-04 6.646893e-05
4.489391e-04 1.640793e-03 -1.965609e-04
6.422262e-04 2.052344e-03 -2.491240e-04
-2.565606e-04 1.723790e-03 1.636410e-04
-1.250310e-04 1.682668e-03 2.099063e-04
2.133372e-04 4.324089e-03 -1.001070e-03
2.916071e-04 6.403755e-03 -2.259436e-03
1.036375e-04 1.911728e-03 -3.579468e-04
3.563492e-04 2.010810e-03 1.330986e-04
-2.836001e-04 7.214703e-05 1.575822e-05
-2.920946e-05 1.874072e-03 1.726459e-04
-2.380020e-04 2.239241e-03 1.134962e-05
3.213153e-04 -1.913926e-04 5.369092e-05
-2.114831e-03 4.105833e-03 -4.955934e-04
5.206361e-03 9.306253e-03 6.645005e-03
-8.499059e-04 4.554236e-03 -1.360155e-03
8.520102e-04 1.553939e-03 6.830120e-05
7.745753e-04 1.566167e-03 -2.791723e-05
-2.632851e-03 8.422397e-03 -1.980266e-03
-4.514913e-04 2.887310e-04 2.004239e-05
-6.268358e-04 3.605317e-03 -7.934668e-04
-6.555346e-04 4.928362e-03 -1.410998e-03
1.564132e-03 3.260562e-02 4.034083e-03
4.881750e-05 1.018789e-04 2.960930e-05
-3.790507e-05 3.260468e-04 1.198729e-05
3.762193e-04 -1.487078e-05 6.893387e-05
-6.901507e-04 7.033324e-03 -2.298043e-03
1.472516e-04 1.998949e-03 1.420432e-04
7.715547e-04 1.961940e-03 1.361438e-05
4.615209e-05 3.219051e-03 -8.539542e-04
-6.588342e-04 3.820518e-03 -9.859451e-04
-4.904888e-04 2.156513e-03 -3.879848e-04
5.919632e-04 7.804010e-05 1.041095e-04
6.850850e-04 2.502047e-04 1.233435e-04
4.086646e-04 1.157014e-02 8.126806e-04
-1.100014e-03 5.870928e-03 -1.963145e-03
8.774588e-04 1.160931e-03 1.084087e-04
6.479940e-08 9.159128e-03 -3.366809e-03
-6.081116e-04 6.528714e-03 -2.153103e-03
-9.191896e-04 9.317018e-03 -3.412710e-03
-6.238941e-04 1.209276e-02 -4.569445e-03
-3.735928e-04 8.172344e-03 -2.912801e-03
-1.495409e-03 2.209617e-03 -9.047742e-05
-9.991030e-04 1.206377e-03 4.045119e-06
-6.831359e-04 6.355004e-04 2.552827e-05
-3.152539e-04 1.392110e-02 -5.019639e-03
-3.178662e-05 5.382961e-03 -1.783048e-03
3.964658e-04 2.544064e-03 -7.496438e-05
1.640481e-04 3.345287e-03 -4.446616e-04
6.163052e-04 2.309358e-03 -3.943043e-05
-9.543491e-04 6.595181e-03 -2.234444e-03
-1.328588e-03 1.370320e-02 -4.998883e-03
9.703626e-05 6.248151e-03 -2.031347e-03
5.484217e-04 3.625762e-04 8.514022e-05
7.496781e-04 1.110902e-03 3.551546e-05
4.973686e-04 -4.862579e-05 8.597603e-05
-5.984404e-05 2.487345e-03 -4.884747e-05
-1.343945e-03 9.251786e-03 -3.250482e-03
-2.055817e-04 5.685415e-03 -1.707243e-03
7.729461e-04 4.908528e-04 1.306115e-04
-2.566208e-04 2.922431e-03 -2.807671e-04
-1.428026e-04 1.460221e-02 -5.475940e-03
2.881352e-04 -1.825516e-04 4.903386e-05
5.148429e-04 1.483990e-04 8.948573e-05
4.151701e-04 -1.323332e-04 6.984930e-05
4.832625e-04 3.526373e-03 -6.812354e-04
-1.195307e-04 9.339367e-03 -3.367801e-03
9.186523e-03 3.183710e-02 1.477471e-02
2.941702e-03 -2.815325e-04 4.914421e-03
2.286838e-03 -3.508465e-04 3.125473e-03
-3.143034e-04 -7.676412e-05 4.675657e-06
4.830849e-03 1.002698e-03 8.412781e-03
-2.412464e-04 -1.227745e-04 -2.647057e-07
-4.805775e-04 5.681438e-05 2.076023e-05
-3.514708e-03 3.779876e-03 3.785151e-04
6.703992e-03 4.274742e-03 1.120758e-02
-5.782988e-03 8.024416e-03 -5.240214e-04
1.108419e-02 1.294451e-02 1.631845e-02
8.512473e-03 6.209729e-02 9.119840e-03
-7.105401e-03 2.408898e-02 -7.007821e-03
-3.123169e-03 5.335520e-02 -1.428098e-02
-5.087559e-05 -2.418692e-04 5.572473e-07
2.517895e-05 -2.779556e-04 3.870679e-06