# vtk DataFile Version 2.0
Simplicial Mesh Example
ASCII
DATASET UNSTRUCTURED_GRID
POINTS 9490 double
4.132646e+04 -3.761110e+05 -2.495947e+04
1.739130e+04 -4.000000e+05 0.000000e+00
1.424943e+04 -3.757412e+05 -2.497841e+04
3.478261e+04 -4.000000e+05 -2.478841e+04
3.431474e+04 -3.668361e+05 0.000000e+00
6.536071e+04 -3.800007e+05 -2.495579e+04
5.217391e+04 -4.000000e+05 0.000000e+00
5.217391e+04 -4.000000e+05 -5.000000e+04
6.848295e+04 -3.663208e+05 -5.000000e+04
1.739130e+04 -4.000000e+05 -5.000000e+04
3.422046e+04 -3.663210e+05 -5.000000e+04
-4.000000e+05 1.043476e+05 -2.478869e+04
-3.778006e+05 1.290431e+05 -2.559237e+04
-3.668348e+05 1.033122e+05 0.000000e+00
-3.750401e+05 1.075547e+05 -3.181274e+04
4.000000e+05 -3.652174e+05 -2.500000e+04
3.692598e+05 -3.333058e+05 -2.499312e+04
3.776504e+05 -3.747415e+05 -2.247043e+04
3.693733e+05 -3.529960e+05 0.000000e+00
-4.000000e+05 8.695652e+04 0.000000e+00
-3.760516e+05 8.212939e+04 -2.543564e+04
-3.482879e+05 1.253124e+05 -2.574623e+04
-3.665651e+05 9.874016e+04 -5.000000e+04
-3.495547e+05 9.060720e+04 -2.563270e+04
-3.071185e+05 -3.486990e+05 -2.261025e+04
-3.153762e+05 -3.243183e+05 -5.000000e+04
-3.287827e+05 -3.355430e+05 -2.504110e+04
-3.095113e+05 -3.153966e+05 -2.507638e+04
-2.962358e+05 -3.323448e+05 0.000000e+00
-3.357456e+05 -3.422369e+05 0.000000e+00
-2.772919e+05 -3.669732e+05 0.000000e+00
-2.934123e+05 -3.742563e+05 -2.511903e+04
-2.806419e+05 -3.463229e+05 -2.661752e+04
-3.140042e+05 -3.607419e+05 -5.000000e+04
-3.320497e+05 -3.703516e+05 -2.524928e+04
-3.224905e+05 6.841821e+04 -2.756000e+04
-3.000000e+05 4.234958e+04 -2.422604e+04
-3.000000e+05 5.362570e+04 -5.000000e+04
-3.000000e+05 7.749820e+04 -2.479801e+04
3.227610e+05 -1.685566e+05 -2.697912e+04
3.499303e+05 -1.919500e+05 -2.498446e+04
3.500600e+05 -1.567367e+05 -2.546429e+04
3.335574e+05 -1.858748e+05 0.000000e+00
3.000000e+05 -1.659466e+05 0.000000e+00
3.208602e+05 -1.947095e+05 -2.232217e+04
3.000000e+05 -1.806737e+05 -2.506219e+04
3.330650e+05 -1.842018e+05 -5.000000e+04
3.000000e+05 -1.978940e+05 -5.000000e+04
3.000000e+05 -1.638587e+05 -5.000000e+04
-1.949782e+05 -3.787045e+05 -2.503133e+04
-1.713812e+05 -3.663209e+05 -5.000000e+04
-1.725141e+05 -3.772415e+05 -2.530126e+04
-1.913043e+05 -4.000000e+05 -5.000000e+04
-1.972219e+05 -3.510331e+05 -2.499278e+04
-1.739069e+05 -4.000000e+05 -2.478809e+04
-1.716829e+05 -3.668361e+05 0.000000e+00
-1.913043e+05 -4.000000e+05 0.000000e+00
1.358880e+05 -3.243044e+05 -2.504137e+04
1.166322e+05 -3.000000e+05 -2.516475e+04
1.497984e+05 -3.000000e+05 -2.516553e+04
1.333333e+05 -3.000000e+05 -5.000000e+04
1.825802e+05 3.751615e+05 -2.720292e+04
2.119132e+05 3.796036e+05 -2.524922e+04
2.061857e+05 3.668333e+05 0.000000e+00
1.947422e+05 3.503722e+05 -2.524152e+04
1.565217e+05 4.000000e+05 0.000000e+00
1.528807e+05 3.759790e+05 -2.499953e+04
1.739069e+05 4.000000e+05 -2.478809e+04
1.716839e+05 3.668365e+05 0.000000e+00
1.913043e+05 4.000000e+05 0.000000e+00
1.565217e+05 4.000000e+05 -5.000000e+04
1.713714e+05 3.663108e+05 -5.000000e+04
1.613560e+05 3.500277e+05 -2.506640e+04
-8.982230e+04 3.792244e+05 -2.494679e+04
-6.535746e+04 3.800015e+05 -2.495585e+04
-6.848071e+04 3.663195e+05 -5.000000e+04
-8.695652e+04 4.000000e+05 -5.000000e+04
-6.956522e+04 4.000000e+05 -2.478801e+04
-9.132937e+04 3.518806e+05 -2.497956e+04
-8.695652e+04 4.000000e+05 0.000000e+00
-6.863978e+04 3.668364e+05 0.000000e+00
8.983161e+04 -3.792230e+05 -2.494676e+04
8.695652e+04 -4.000000e+05 -5.000000e+04
6.956522e+04 -4.000000e+05 -2.478801e+04
8.695652e+04 -4.000000e+05 0.000000e+00
9.134075e+04 -3.518804e+05 -2.497894e+04
6.864043e+04 -3.668360e+05 0.000000e+00
-1.485035e+05 -3.773486e+05 -2.721498e+04
-1.630495e+05 -3.485427e+05 -2.521974e+04
-1.185212e+05 -3.761066e+05 -2.504756e+04
-1.217391e+05 -4.000000e+05 -5.000000e+04
-1.370985e+05 -3.663236e+05 -5.000000e+04
-1.217391e+05 -4.000000e+05 0.000000e+00
-1.391294e+05 -4.000000e+05 -2.478846e+04
-1.373218e+05 -3.668365e+05 0.000000e+00
-1.565217e+05 -4.000000e+05 0.000000e+00
-1.276844e+05 -3.500075e+05 -2.505733e+04
-3.784905e+05 1.568709e+05 -2.476156e+04
-3.664298e+05 1.337587e+05 -5.000000e+04
-3.514457e+05 1.599418e+05 -2.483113e+04
-4.000000e+05 1.565217e+05 -5.000000e+04
-4.000000e+05 1.391294e+05 -2.478846e+04
-3.668349e+05 1.375908e+05 0.000000e+00
-4.000000e+05 1.565217e+05 0.000000e+00
3.668265e+05 -1.714683e+05 0.000000e+00
4.000000e+05 -1.913043e+05 0.000000e+00
4.000000e+05 -1.739069e+05 -2.478809e+04
4.000000e+05 -1.565217e+05 0.000000e+00
3.763528e+05 1.812702e+05 -2.493822e+04
4.000000e+05 1.565217e+05 0.000000e+00
3.764050e+05 1.528124e+05 -2.490916e+04
4.000000e+05 1.739130e+05 -2.478510e+04
3.668383e+05 1.722952e+05 0.000000e+00
3.797466e+05 2.119345e+05 -2.497186e+04
4.000000e+05 1.913043e+05 -5.000000e+04
3.662642e+05 2.068445e+05 -5.000000e+04
3.507120e+05 1.619053e+05 -2.490325e+04
3.662844e+05 1.729597e+05 -5.000000e+04
4.000000e+05 1.565217e+05 -5.000000e+04
3.776488e+05 -7.900637e+04 -2.735718e+04
3.762845e+05 -4.901174e+04 -2.508786e+04
3.663605e+05 -6.676216e+04 -5.000000e+04
3.502306e+05 -5.807827e+04 -2.511783e+04
4.000000e+05 -5.217391e+04 -5.000000e+04
3.773063e+05 -1.038824e+05 -2.578879e+04
4.000000e+05 -8.695652e+04 0.000000e+00
3.668372e+05 -1.026508e+05 0.000000e+00
4.000000e+05 -5.217391e+04 0.000000e+00
4.000000e+05 -6.956519e+04 -2.478879e+04
3.668380e+05 -6.826645e+04 0.000000e+00
4.000000e+05 -1.043476e+05 -2.478869e+04
-1.666667e+05 -3.000000e+05 -5.000000e+04
-1.833333e+05 -3.000000e+05 -2.518468e+04
-1.933582e+05 -3.216521e+05 -2.503520e+04
-1.657267e+05 -3.213415e+05 -2.506307e+04
-1.666667e+05 -3.000000e+05 0.000000e+00
3.334882e+05 -2.202831e+05 0.000000e+00
3.000000e+05 -1.994599e+05 0.000000e+00
3.000000e+05 -2.085861e+05 -2.501244e+04
-1.859359e+05 -3.331067e+05 -5.000000e+04
-1.862587e+05 -3.335758e+05 0.000000e+00
-4.132523e+04 3.761107e+05 -2.495957e+04
-3.478261e+04 4.000000e+05 -2.478841e+04
-5.217391e+04 4.000000e+05 -5.000000e+04
-1.739130e+04 4.000000e+05 -5.000000e+04
-1.424890e+04 3.757408e+05 -2.497844e+04
-3.421938e+04 3.663190e+05 -5.000000e+04
-5.217391e+04 4.000000e+05 0.000000e+00
-1.739130e+04 4.000000e+05 0.000000e+00
-3.431405e+04 3.668365e+05 0.000000e+00
-2.739007e+04 3.505180e+05 -2.498776e+04
-1.739130e+05 4.000000e+05 -2.478510e+04
-1.528672e+05 3.759826e+05 -2.500255e+04
-1.716148e+05 3.668263e+05 0.000000e+00
-1.825315e+05 3.751689e+05 -2.721318e+04
-1.913043e+05 4.000000e+05 0.000000e+00
-2.059314e+05 3.667832e+05 0.000000e+00
-2.118669e+05 3.796033e+05 -2.526514e+04
-1.612599e+05 3.500460e+05 -2.507149e+04
-1.913043e+05 4.000000e+05 -5.000000e+04
-2.056558e+05 3.663226e+05 -5.000000e+04
-1.712892e+05 3.663242e+05 -5.000000e+04
-1.565217e+05 4.000000e+05 -5.000000e+04
3.507710e+05 -3.071241e+05 -1.983709e+04
3.472371e+05 -2.783609e+05 -2.630278e+04
3.316724e+05 -2.967750e+05 0.000000e+00
3.666108e+05 -2.775848e+05 0.000000e+00
3.309559e+05 -3.255688e+05 -2.698212e+04
3.397681e+05 -3.369212e+05 0.000000e+00
3.744093e+05 -2.934608e+05 -2.492539e+04
3.303054e+05 -2.869393e+05 -5.000000e+04
3.606270e+05 -3.135064e+05 -5.000000e+04
-3.238506e+05 1.781151e+05 -2.284516e+04
-3.335738e+05 1.866432e+05 0.000000e+00
-3.000000e+05 1.673499e+05 0.000000e+00
-3.000000e+05 2.005124e+05 0.000000e+00
-3.242363e+05 2.019112e+05 -2.479758e+04
-3.335722e+05 1.528704e+05 0.000000e+00
-3.219833e+05 1.550144e+05 -2.418889e+04
-3.331119e+05 1.814444e+05 -5.000000e+04
-3.500623e+05 1.947691e+05 -2.492389e+04
3.000000e+05 -1.480457e+05 -2.518612e+04
3.070808e+05 3.546107e+05 -1.714572e+04
2.838715e+05 3.432764e+05 -2.626473e+04
2.962288e+05 3.323792e+05 0.000000e+00
2.772894e+05 3.669850e+05 0.000000e+00
3.214547e+05 3.369143e+05 -2.636251e+04
3.136723e+05 3.607135e+05 -5.000000e+04
2.935138e+05 3.747013e+05 -2.499119e+04
3.357389e+05 3.423035e+05 0.000000e+00
3.310854e+05 3.708053e+05 -2.520548e+04
-3.303425e+05 2.864208e+05 -5.000000e+04
-3.469504e+05 2.817468e+05 -2.677742e+04
-3.300427e+05 3.281790e+05 -2.631692e+04
-3.606526e+05 3.133330e+05 -5.000000e+04
-3.538099e+05 3.084519e+05 -1.787405e+04
-3.749470e+05 2.933940e+05 -2.493585e+04
-3.716865e+05 3.330494e+05 -2.604840e+04
-3.422611e+05 3.357632e+05 0.000000e+00
-3.323575e+05 2.962961e+05 0.000000e+00
-3.669772e+05 2.773495e+05 0.000000e+00
-3.208683e+05 1.285984e+05 -2.543766e+04
-3.000000e+05 1.341874e+05 0.000000e+00
-3.000000e+05 1.457374e+05 -2.479770e+04
-3.331557e+05 1.463574e+05 -5.000000e+04
-3.335717e+05 1.191216e+05 0.000000e+00
-3.000000e+05 1.116890e+05 -2.479816e+04
3.750985e+05 1.731082e+04 -2.495385e+04
3.668370e+05 3.487991e+04 0.000000e+00
3.766226e+05 5.120408e+04 -2.491509e+04
3.486553e+05 3.094323e+04 -2.470062e+04
3.664079e+05 2.208090e+03 -5.000000e+04
3.755591e+05 -1.521008e+04 -2.489784e+04
3.365423e+05 9.969610e+02 -2.491966e+04
3.668382e+05 4.985393e+02 0.000000e+00
4.000000e+05 8.858707e-04 -2.478866e+04
4.000000e+05 1.739130e+04 0.000000e+00
3.664904e+05 3.662308e+04 -5.000000e+04
4.000000e+05 1.739130e+04 -5.000000e+04
4.000000e+05 3.478261e+04 -2.478841e+04
3.241835e+05 -1.338846e+05 -2.511108e+04
3.331162e+05 -1.156285e+05 -5.000000e+04
3.331063e+05 -1.499070e+05 -5.000000e+04
3.000000e+05 -1.298234e+05 -5.000000e+04
3.000000e+05 -1.142814e+05 -2.518156e+04
3.501925e+05 -1.229656e+05 -2.536930e+04
3.335703e+05 -1.518628e+05 0.000000e+00
3.335746e+05 -1.178848e+05 0.000000e+00
3.000000e+05 -1.324332e+05 0.000000e+00
-1.185180e+05 -3.335740e+05 0.000000e+00
-1.333333e+05 -3.000000e+05 0.000000e+00
-1.000000e+05 -3.000000e+05 0.000000e+00
-1.166667e+05 -3.000000e+05 -2.516967e+04
3.767701e+05 8.545747e+04 -2.498937e+04
4.000000e+05 8.695652e+04 -5.000000e+04
3.664910e+05 7.093362e+04 -5.000000e+04
3.664147e+05 1.050627e+05 -5.000000e+04
4.000000e+05 8.695652e+04 0.000000e+00
3.668311e+05 6.925743e+04 0.000000e+00
4.000000e+05 6.956522e+04 -2.478801e+04
3.532003e+05 6.143720e+04 -2.460611e+04
3.529343e+05 9.380645e+04 -2.566405e+04
-6.874474e+04 -3.242435e+05 -2.504036e+04
[...]
POINT_DATA 9490
VECTORS displacement double
9.842111e-04 -1.089067e-04 9.254510e-05
9.939916e-04 0.000000e+00 1.099908e-04
1.009433e-03 -1.686486e-04 7.683828e-05
1.005869e-03 0.000000e+00 1.012982e-04
9.642335e-04 -1.415679e-04 9.324802e-05
9.380904e-04 -5.251364e-05 1.011091e-04
9.603899e-04 0.000000e+00 1.220394e-04
1.004061e-03 0.000000e+00 9.728433e-05
9.416112e-04 -8.182893e-05 8.320038e-05
1.058978e-03 0.000000e+00 8.523308e-05
1.025097e-03 -1.826811e-04 6.726540e-05
0.000000e+00 1.066784e-03 -2.885085e-04
-1.811072e-04 1.253094e-03 -2.454752e-04
-1.802840e-04 1.228599e-03 -3.384351e-04
-1.849280e-04 1.168332e-03 -3.093296e-04
0.000000e+00 7.242384e-05 -3.527166e-06
4.688534e-05 1.348731e-04 -6.787380e-06
4.268844e-05 5.321335e-05 -2.181876e-06
5.498082e-05 1.001057e-04 -3.873089e-06
0.000000e+00 1.008513e-03 -3.155172e-04
-1.219897e-04 1.041625e-03 -3.398946e-04
-4.261375e-04 1.567971e-03 -3.590293e-04
-2.494882e-04 1.103336e-03 -3.314332e-04
-3.297155e-04 1.414837e-03 -4.350782e-04
-5.283149e-04 -3.481515e-04 -3.485099e-05
-6.012752e-04 -4.777699e-04 -1.456896e-04
-4.684900e-04 -2.827693e-04 -3.781421e-05
-5.942581e-04 -5.660635e-04 -2.139940e-04
-5.358663e-04 -4.516141e-04 -1.158528e-04
-3.843430e-04 -1.487579e-04 2.091049e-05
-5.151142e-04 -3.047554e-04 3.588373e-06
-5.357799e-04 -2.228245e-04 2.516031e-05
-6.082402e-04 -5.742101e-04 -1.122855e-04
-5.318207e-04 -2.689148e-04 1.492560e-05
-4.147609e-04 -1.236867e-04 7.861699e-05
-4.081627e-04 1.907275e-03 -5.912999e-04
-2.064146e-04 2.440235e-03 -4.922271e-04
-4.364593e-04 2.010657e-03 -6.422071e-04
-7.968624e-04 2.789649e-03 -8.871669e-04
-1.685095e-04 2.564765e-04 -5.509388e-05
-7.995371e-05 2.592564e-04 -4.602614e-05
-1.237718e-04 2.326945e-04 -5.665189e-05
-1.162908e-04 2.696144e-04 -5.235589e-05
-2.262025e-04 2.752213e-04 -6.219322e-05
-1.159030e-04 2.724965e-04 -4.654655e-05
-1.859619e-04 2.775072e-04 -5.299244e-05
-1.180370e-04 2.581480e-04 -4.629264e-05
-1.406577e-04 2.809354e-04 -4.229263e-05
-2.322596e-04 2.622305e-04 -5.429467e-05
-2.256557e-04 -4.648538e-04 -1.160922e-04
-5.371053e-05 -8.165717e-04 -1.845824e-04
-4.793378e-05 -5.176701e-04 -1.243499e-04
-2.067264e-04 0.000000e+00 -7.633410e-05
-2.848262e-04 -1.091397e-03 -2.718359e-04
-5.448474e-05 0.000000e+00 -8.389490e-05
-4.356008e-05 -6.741902e-04 -1.428278e-04
-1.797787e-04 0.000000e+00 -3.891307e-05
5.850433e-04 8.722114e-05 5.076437e-05
5.514972e-04 6.338619e-05 2.449746e-05
4.424489e-04 1.502424e-04 2.787454e-05
5.100358e-04 1.090969e-04 2.435123e-05
7.315288e-04 -5.874457e-06 1.204089e-04
6.362836e-04 -1.461449e-05 1.027455e-04
6.622110e-04 -2.552040e-05 1.123244e-04
6.725550e-04 -2.461555e-05 1.095385e-04
8.395416e-04 0.000000e+00 1.501327e-04
8.272507e-04 1.142870e-05 1.424077e-04
7.686205e-04 0.000000e+00 1.272320e-04
7.786304e-04 -2.523929e-06 1.365826e-04
7.247330e-04 0.000000e+00 1.244008e-04
8.150922e-04 0.000000e+00 1.307000e-04
7.564695e-04 2.865246e-06 1.185376e-04
7.797490e-04 1.286681e-05 1.321460e-04
7.950212e-04 2.791772e-04 3.462467e-04
8.942950e-04 2.416631e-04 3.322952e-04
8.800125e-04 4.338681e-04 3.032099e-04
8.094750e-04 0.000000e+00 3.235362e-04
8.797676e-04 0.000000e+00 3.363579e-04
7.838194e-04 6.540645e-04 3.298228e-04
8.219235e-04 0.000000e+00 3.726023e-04
8.911305e-04 3.955346e-04 3.530199e-04
8.639014e-04 -1.929374e-05 9.903889e-05
9.055547e-04 0.000000e+00 9.613554e-05
9.331173e-04 0.000000e+00 1.062544e-04
8.813225e-04 0.000000e+00 1.180866e-04
8.217298e-04 -3.642460e-05 7.913349e-05
9.033445e-04 -5.540243e-05 1.026156e-04
1.632946e-04 -5.328701e-04 -1.266984e-04
1.180358e-05 -1.249603e-03 -3.108424e-04
4.324632e-04 -5.395307e-04 -1.114125e-04
4.253189e-04 0.000000e+00 -6.695992e-05
2.782211e-04 -8.268512e-04 -1.756362e-04
3.817116e-04 0.000000e+00 -3.459605e-05
2.535155e-04 0.000000e+00 -7.404021e-05
2.484767e-04 -6.796802e-04 -1.285862e-04
9.904293e-05 0.000000e+00 -4.712955e-05
3.493241e-04 -1.192207e-03 -2.742493e-04
-1.638372e-04 1.324594e-03 -1.362400e-04
-3.072465e-04 1.317169e-03 -2.540176e-04
-3.746511e-04 1.551988e-03 -1.836662e-04
0.000000e+00 1.257715e-03 -1.161289e-04
0.000000e+00 1.220392e-03 -1.889119e-04
-2.161009e-04 1.292310e-03 -2.202238e-04
0.000000e+00 1.191389e-03 -1.075528e-04
-6.790942e-05 2.470095e-04 -5.536483e-05
0.000000e+00 2.554189e-04 -4.873556e-05
0.000000e+00 2.390085e-04 -5.132193e-05
0.000000e+00 2.291685e-04 -5.942916e-05
7.008646e-06 -2.939150e-04 -1.437581e-07
0.000000e+00 -3.062979e-04 -1.055419e-05
-9.179980e-06 -2.944606e-04 -1.233707e-05
0.000000e+00 -2.973958e-04 -3.322485e-06
3.693566e-06 -3.050613e-04 -3.964912e-06
1.967579e-05 -2.807917e-04 1.251687e-05
0.000000e+00 -2.853465e-04 3.279026e-06
3.098294e-05 -2.763663e-04 9.796382e-06
-9.905614e-06 -2.941935e-04 -7.999892e-06
2.098718e-06 -2.885760e-04 -3.306734e-06
0.000000e+00 -2.895245e-04 -1.109448e-05
-8.512479e-05 9.546732e-05 -6.893921e-05
-9.494774e-05 2.818643e-05 -7.031528e-05
-1.321456e-04 6.980766e-05 -6.532218e-05
-1.997403e-04 5.334754e-05 -7.275999e-05
0.000000e+00 3.454346e-05 -6.479922e-05
-7.952629e-05 1.459117e-04 -6.628856e-05
0.000000e+00 1.132297e-04 -7.243142e-05
-1.178857e-04 1.488088e-04 -7.181664e-05
0.000000e+00 3.423104e-05 -7.446568e-05
0.000000e+00 7.358632e-05 -6.911304e-05
-1.311261e-04 7.417117e-05 -7.524744e-05
0.000000e+00 1.464461e-04 -6.612640e-05
-1.111837e-04 -2.780437e-03 -9.808720e-04
-2.867175e-04 -2.699083e-03 -9.839174e-04
-3.245168e-04 -1.891754e-03 -6.079748e-04
-5.023555e-05 -2.040720e-03 -6.450176e-04
-8.689907e-05 -2.480734e-03 -9.410521e-04
-5.425823e-05 2.744284e-04 -3.950481e-05
-1.357605e-04 2.932007e-04 -4.802510e-05
-1.090315e-04 2.853540e-04 -4.126128e-05
-2.488408e-04 -1.642917e-03 -4.619553e-04
-2.042258e-04 -1.379439e-03 -4.142287e-04
9.682441e-04 2.563159e-04 3.136501e-04
9.898866e-04 0.000000e+00 3.113433e-04
9.366309e-04 0.000000e+00 3.016764e-04
1.021070e-03 0.000000e+00 2.754335e-04
1.025374e-03 2.235094e-04 2.916742e-04
9.839842e-04 3.627550e-04 2.818594e-04
9.510670e-04 0.000000e+00 3.487742e-04
1.039914e-03 0.000000e+00 3.212073e-04
9.980437e-04 3.300626e-04 3.259197e-04
9.945802e-04 4.882347e-04 2.893488e-04
3.862323e-04 0.000000e+00 3.872705e-04
4.876956e-04 3.658311e-04 3.739175e-04
3.944237e-04 4.866143e-04 4.037471e-04
3.355076e-04 3.783279e-04 3.811611e-04
3.104277e-04 0.000000e+00 4.216181e-04
2.276019e-04 4.722039e-04 4.126904e-04
2.016460e-04 3.003058e-04 3.930171e-04
4.244158e-04 7.704514e-04 3.544314e-04
2.973908e-04 0.000000e+00 3.646282e-04
2.147949e-04 5.206795e-04 3.554808e-04
3.820200e-04 5.369296e-04 3.461249e-04
4.702294e-04 0.000000e+00 3.544735e-04
5.700796e-05 1.825868e-04 -1.097992e-05
3.211348e-05 2.218197e-04 -1.809712e-05
7.210178e-05 2.077900e-04 -1.225194e-05
1.931190e-05 2.256940e-04 -2.104659e-05
1.016835e-04 1.531006e-04 -4.557431e-06
9.916180e-05 1.352477e-04 -3.888890e-06
2.274158e-05 1.982328e-04 -1.553857e-05
5.379216e-05 2.112304e-04 -1.300312e-05
4.852735e-05 1.668168e-04 -9.367801e-06
-5.098202e-04 1.874026e-03 -1.816358e-04
-3.659631e-04 1.596580e-03 -7.361942e-05
-5.581194e-04 2.216059e-03 -3.497114e-04
-4.426238e-04 1.950040e-03 -9.595684e-05
-4.255659e-04 1.738808e-03 -3.726168e-05
-4.215895e-04 1.712589e-03 -2.721537e-04
-6.123869e-04 2.010642e-03 -3.494557e-04
-5.006116e-04 1.760500e-03 -1.374811e-04
-3.169734e-04 1.505065e-03 -1.408748e-05
-2.699500e-04 2.484204e-04 -6.417354e-05
3.012810e-04 -7.676416e-05 6.276793e-05
3.691880e-04 -8.788074e-05 6.647115e-05
3.272728e-04 -1.138886e-04 6.534544e-05
4.148735e-04 -5.224399e-05 7.727482e-05
2.431253e-04 -1.084020e-04 5.496565e-05
2.782646e-04 -6.552049e-05 5.560110e-05
3.544843e-04 -4.101987e-05 6.709457e-05
2.046748e-04 -1.056633e-04 5.763582e-05
2.272714e-04 -5.205591e-05 5.767338e-05
-1.815211e-04 1.126655e-03 2.698880e-04
-1.478682e-04 1.049702e-03 2.924043e-04
-9.280944e-05 7.148402e-04 3.706281e-04
-8.105278e-05 7.983889e-04 3.280066e-04
-8.788861e-05 8.136485e-04 3.526973e-04
-6.200010e-05 8.915051e-04 3.246357e-04
-4.395205e-05 5.909339e-04 3.776404e-04
-7.143394e-05 5.903137e-04 4.093848e-04
-1.272123e-04 9.394958e-04 3.468843e-04
-9.447608e-05 9.609509e-04 3.165109e-04
-6.637481e-04 2.111772e-03 -5.232191e-04
-6.509396e-04 2.509644e-03 -6.349032e-04
-7.915291e-04 2.533606e-03 -5.711339e-04
-5.957948e-04 1.794880e-03 -3.249617e-04
-4.241689e-04 1.779311e-03 -4.524433e-04
-8.868118e-04 2.742620e-03 -8.245661e-04
-8.923325e-05 -1.238107e-04 -6.201105e-05
-1.115096e-04 -1.660439e-04 -6.174695e-05
-7.124446e-05 -1.904776e-04 -5.271906e-05
-1.758791e-04 -1.515861e-04 -6.061562e-05
-1.287827e-04 -8.743142e-05 -6.089930e-05
-9.685812e-05 -5.065829e-05 -6.792683e-05
-2.441206e-04 -8.490262e-05 -6.885887e-05
-1.281975e-04 -9.053132e-05 -7.030605e-05
0.000000e+00 -8.626353e-05 -6.487536e-05
0.000000e+00 -1.296481e-04 -6.549336e-05
-1.118096e-04 -1.593030e-04 -5.334690e-05
0.000000e+00 -1.213119e-04 -5.704915e-05
0.000000e+00 -1.596230e-04 -5.704884e-05
-2.274869e-04 2.151309e-04 -6.534297e-05
-2.251500e-04 1.788804e-04 -6.291291e-05
-1.759384e-04 2.292502e-04 -5.620014e-05
-3.156454e-04 2.205376e-04 -6.424126e-05
-3.456633e-04 1.942360e-04 -7.281173e-05
-1.601175e-04 1.862927e-04 -6.485218e-05
-1.732942e-04 2.397843e-04 -6.372311e-05
-2.224388e-04 1.879101e-04 -7.271156e-05
-3.122199e-04 2.315627e-04 -7.347995e-05
3.841401e-04 -1.393422e-03 -3.663527e-04
2.347023e-04 -2.452190e-03 -9.023535e-04
5.282334e-04 -2.190392e-03 -7.643340e-04
4.756771e-04 -2.633778e-03 -8.912108e-04
-5.210490e-05 -2.440362e-04 -4.056915e-05
0.000000e+00 -2.405820e-04 -3.710937e-05
-8.739898e-05 -2.180952e-04 -4.310359e-05
-5.949920e-05 -2.602760e-04 -3.064967e-05
0.000000e+00 -2.547732e-04 -4.235190e-05
-8.874992e-05 -2.284061e-04 -4.967105e-05
0.000000e+00 -2.211020e-04 -4.606101e-05
-1.343386e-04 -2.072000e-04 -5.041371e-05
-9.627766e-05 -2.539220e-04 -3.768449e-05
8.285106e-04 -1.440260e-03 -3.611865e-04
9.419630e-04 -1.953309e-03 -5.940720e-04
7.755029e-04 -1.423567e-03 -3.301674e-04
7.646304e-04 -2.220087e-03 -7.157652e-04
9.664427e-04 -1.108321e-03 -2.187117e-04
9.566284e-04 -1.052351e-03 -2.223103e-04
8.514666e-04 -8.518914e-04 -1.332099e-04
9.251385e-04 -1.678950e-03 -5.018986e-04
7.227688e-04 -1.754280e-03 -5.716829e-04
6.383028e-04 -1.205451e-03 -2.825816e-04
8.137092e-04 -9.403041e-04 -1.799592e-04
1.054929e-03 -3.237255e-04 2.975919e-05
9.160729e-04 -1.471459e-04 6.626802e-05
9.673765e-04 -2.551567e-04 6.663591e-05
3.459354e-04 1.185618e-03 3.095657e-04
4.197042e-04 1.594934e-03 2.361756e-04
4.613575e-04 9.786451e-04 3.564819e-04
3.234312e-04 1.514779e-03 2.705800e-04
2.812317e-04 9.730509e-04 3.680922e-04
4.524810e-04 1.078391e-03 2.977058e-04
3.123950e-04 1.669407e-03 2.153156e-04
1.766100e-04 1.144938e-03 3.216345e-04
2.539773e-04 7.529959e-04 3.649698e-04
2.637381e-04 1.072237e-03 3.076793e-04
5.349357e-04 1.165341e-03 2.995837e-04
5.233103e-04 1.629886e-03 2.094192e-04
6.413598e-04 1.029118e-03 2.880647e-04
6.170836e-04 1.518147e-03 2.328566e-04
6.053508e-04 7.437408e-04 3.430764e-04
6.441962e-04 9.357638e-04 3.443260e-04
5.191096e-04 1.483201e-03 2.626762e-04
2.626642e-05 8.375419e-04 -2.806820e-04
-7.198513e-05 8.330149e-04 -3.130128e-04
2.336391e-04 5.665773e-04 -1.572581e-04
0.000000e+00 6.098818e-04 -2.508335e-04
-8.606524e-05 1.182458e-03 -3.745182e-04
0.000000e+00 8.673120e-04 -3.065266e-04
-6.372215e-05 1.109578e-03 -3.559275e-04
0.000000e+00 8.727617e-04 -2.912069e-04
1.633398e-04 9.568488e-04 -2.322207e-04
3.275369e-05 -2.867322e-04 6.816734e-06
3.165120e-05 -2.920098e-04 1.197411e-05
0.000000e+00 -3.002993e-04 4.280946e-06
6.966338e-05 -2.635125e-04 2.047940e-05
0.000000e+00 -2.784858e-04 1.850752e-05
0.000000e+00 -2.810099e-04 1.099821e-05
0.000000e+00 -2.643283e-04 1.647607e-05
-1.195403e-04 1.413878e-04 -6.262909e-05
-1.855253e-04 1.258511e-04 -7.041979e-05
-1.982757e-04 -2.131063e-05 -7.147950e-05
-1.352624e-04 -9.230112e-06 -6.494854e-05
0.000000e+00 -5.997279e-06 -6.912743e-05
-6.529614e-04 -6.225164e-04 -6.630868e-04
-6.405095e-04 -4.058012e-04 -5.206534e-04
-9.808861e-04 -1.173249e-03 -1.005016e-03
-8.680711e-04 -1.257057e-03 -8.653825e-04
-1.343000e-04 -8.007197e-06 -7.482293e-05
1.022452e-03 4.318792e-04 2.237055e-04
1.046338e-03 4.369056e-04 2.622001e-04
1.001428e-03 6.821106e-04 2.124435e-04
9.995980e-04 5.450077e-04 2.199122e-04
9.976313e-04 5.927321e-04 1.876098e-04
1.015335e-03 3.352112e-04 2.012642e-04
9.736610e-04 4.708499e-04 1.944035e-04
1.031748e-03 3.061248e-04 2.335246e-04
9.811237e-04 2.856329e-04 1.978259e-04
1.022057e-03 2.182898e-04 2.174261e-04
1.046331e-03 3.098827e-04 2.448913e-04
8.883645e-04 -3.745356e-04 -1.401142e-05
8.431522e-04 -6.250763e-04 -7.970894e-05
9.246317e-04 0.000000e+00 8.872765e-06
7.876857e-04 0.000000e+00 -3.093037e-06
7.514299e-04 -5.193121e-04 -3.813883e-05
8.374857e-04 0.000000e+00 4.297988e-05
9.005189e-04 -3.880267e-04 1.958752e-05
9.990103e-04 -4.645426e-04 -1.763266e-05
9.912374e-04 -2.755323e-04 3.789511e-05
9.630723e-04 -6.275049e-04 -5.586425e-05
9.433970e-04 0.000000e+00 4.355959e-05
9.800254e-04 1.909009e-04 2.028660e-04
9.567779e-04 3.571834e-04 1.976155e-04
9.489278e-04 3.933664e-04 1.694904e-04
9.602940e-04 2.118453e-04 1.754579e-04
9.121159e-04 2.928230e-04 1.730187e-04
9.107395e-04 1.647572e-04 1.709460e-04
9.636347e-04 1.337269e-04 1.874675e-04
8.609292e-04 3.747407e-05 1.426178e-04
7.031194e-04 0.000000e+00 1.078464e-04
-2.065011e-04 -6.895269e-05 -1.553449e-04
-4.320182e-04 -2.632435e-04 -2.977360e-04
-2.847714e-04 -3.171866e-05 -3.437815e-04
-2.505143e-04 -9.207208e-06 -2.509526e-04
8.851590e-04 2.964346e-05 1.644792e-04
5.261528e-04 -6.251195e-04 -9.225453e-05
5.938405e-04 -7.523204e-04 -1.368838e-04
6.960215e-04 -4.774437e-04 -6.940448e-05
6.400732e-04 -1.057941e-03 -2.133131e-04
5.473111e-04 0.000000e+00 -4.416707e-05
9.919495e-05 0.000000e+00 -8.028749e-05
-2.893913e-04 -5.936558e-04 -1.164871e-04
-3.438912e-04 -7.271193e-04 -1.578594e-04
4.212876e-05 1.708624e-04 -1.142081e-05
0.000000e+00 1.790969e-04 -1.309456e-05
0.000000e+00 1.996132e-04 -1.641722e-05
4.622540e-04 6.927627e-04 1.733391e-05
1.083026e-03 6.687779e-04 3.154911e-04
0.000000e+00 6.824440e-04 -2.868975e-05
5.516141e-04 5.940716e-04 1.045131e-04
3.734804e-04 4.556709e-04 -6.668593e-05
0.000000e+00 3.060076e-04 4.003088e-04
-2.200905e-05 2.026137e-04 4.311032e-04
-3.444977e-05 4.399799e-04 4.173475e-04
-3.039086e-05 2.828260e-04 3.984773e-04
9.391250e-04 7.320523e-04 2.130235e-04
3.250693e-04 6.322877e-04 -1.777058e-04
8.672391e-04 5.473633e-04 1.605486e-04
6.888331e-04 8.319234e-04 5.361994e-06
7.048769e-04 -3.511967e-06 5.021790e-05
7.790630e-04 -4.328543e-05 6.411156e-05
5.888216e-04 2.394638e-05 2.311524e-05
6.696552e-04 -8.636810e-05 2.676318e-06
8.206573e-04 -7.672488e-05 4.856592e-05
6.337855e-04 -4.582419e-06 1.457443e-05
6.926657e-04 3.168699e-05 5.531205e-05
6.739949e-04 5.499172e-05 6.739920e-05
6.918167e-04 4.123460e-05 7.292352e-05
7.167865e-04 1.079332e-03 2.912023e-04
8.078759e-04 9.309294e-04 2.771769e-04
8.653422e-04 9.532913e-04 2.798237e-04
7.885554e-04 1.364568e-03 2.317232e-04
0.000000e+00 1.372106e-04 -2.720101e-04
0.000000e+00 3.408377e-05 -2.050056e-04
7.180483e-04 1.505241e-03 2.117384e-04
2.272399e-04 6.706188e-04 -1.212959e-04
3.630585e-04 8.545877e-04 -1.064351e-04
6.053818e-04 4.892265e-04 3.297378e-05
0.000000e+00 6.841286e-04 -2.192055e-04
7.840924e-04 6.616589e-04 1.300572e-04
0.000000e+00 5.894136e-04 -8.785550e-05
4.299388e-04 8.117787e-04 -1.595091e-05
7.347662e-04 4.911747e-04 3.219902e-04
7.329684e-04 0.000000e+00 3.599086e-04
-3.966350e-04 -8.559126e-05 -7.838811e-05
-3.669129e-04 -1.265442e-04 -6.804656e-05
-4.090977e-04 -4.486597e-05 -7.599067e-05
9.122777e-04 5.872954e-04 3.097638e-04
4.738694e-04 1.370957e-04 4.259003e-05
5.677925e-04 9.510304e-05 4.955476e-05
3.991379e-04 1.732208e-04 2.366251e-05
4.520256e-04 1.294988e-04 3.884724e-05
5.635164e-04 1.134887e-04 5.883776e-05
3.904547e-04 1.928954e-04 2.862206e-05
3.744401e-04 1.605304e-04 3.086608e-05
4.582364e-04 1.047104e-04 4.502068e-05
4.561478e-04 1.435376e-04 4.511196e-05
-4.155104e-04 -4.502271e-04 -9.022002e-05
-4.949910e-04 -9.157621e-04 -2.233366e-04
-5.398690e-04 -4.247811e-04 -4.745205e-05
-4.554643e-04 -4.578795e-04 -5.920822e-05
-4.785115e-04 0.000000e+00 -1.016251e-05
-3.784175e-04 0.000000e+00 -8.422780e-06
-4.775284e-04 -4.301959e-04 -5.263009e-04
-6.440607e-04 -6.489167e-04 -4.533671e-04
6.049012e-04 0.000000e+00 1.030633e-04
5.603996e-04 -5.054009e-05 9.069684e-05
6.438052e-04 -2.080683e-05 9.783923e-05
5.859888e-04 0.000000e+00 8.877892e-05
-2.200758e-04 -1.984552e-04 -5.522511e-05
-2.023095e-04 -1.985574e-04 -5.864422e-05
-2.699713e-04 -2.274679e-04 -5.507547e-05
-3.446846e-04 -1.637385e-04 -6.839584e-05
-1.983671e-04 -1.921226e-04 -5.001010e-05
-1.426840e-04 -2.511809e-04 -3.908193e-05
-1.515683e-04 -2.522857e-04 -4.527677e-05
-1.453389e-04 -2.426973e-04 -3.760648e-05
-2.987787e-04 -1.994974e-04 -5.560765e-05
-6.777536e-05 1.899309e-04 -6.144126e-05
0.000000e+00 1.733299e-04 -5.843284e-05
0.000000e+00 1.800907e-04 -6.762104e-05
0.000000e+00 1.094424e-04 -6.359459e-05
-2.678436e-04 -4.752034e-05 -7.736077e-05
-4.204718e-04 1.356113e-06 -8.407147e-05
0.000000e+00 -4.457614e-05 -6.249028e-05
0.000000e+00 -4.927931e-05 -7.220619e-05
-2.880050e-04 1.436336e-03 9.950113e-05
-4.297854e-04 -2.646227e-04 -1.288222e-04
-4.591018e-04 -3.050583e-04 -1.433247e-04
-2.611019e-04 -4.408470e-05 -5.770118e-05
-4.659266e-04 -3.483079e-04 -3.021620e-04
-5.759625e-04 -4.118055e-04 -2.593240e-04
-5.305374e-04 -1.390518e-03 -3.945629e-04
-5.657250e-04 -1.566271e-03 -5.107805e-04
-5.043254e-04 -2.499007e-03 -9.085268e-04
-5.809107e-04 -1.757388e-03 -7.205315e-04
-5.487913e-04 -8.530561e-04 -2.433674e-04
-4.301281e-04 -1.154238e-03 -3.521481e-04
-6.799802e-04 -1.066285e-03 -2.960410e-04
-5.923816e-04 -2.314750e-03 -8.754781e-04
-3.896775e-04 -2.223203e-03 -8.810817e-04
-7.713106e-04 -1.980471e-03 -7.494700e-04
4.866711e-04 1.331699e-04 3.205862e-05
5.712892e-04 8.341092e-05 6.033531e-05
-7.058519e-04 -1.362166e-03 -9.759203e-04
-4.568682e-04 -5.324623e-04 -6.907930e-04
-9.509008e-04 -1.458190e-03 -1.094082e-03
-5.160007e-04 -6.407221e-04 -7.979380e-04
-6.061683e-04 -2.723184e-04 -6.827609e-04
5.109814e-06 2.360363e-04 -2.478993e-05
-1.033801e-05 2.572303e-04 -3.214561e-05
7.064678e-06 2.558113e-04 -2.600886e-05
6.152588e-04 -4.969698e-05 9.950111e-05
5.868290e-04 -7.472406e-05 9.911853e-05
6.938526e-04 -2.953213e-05 1.193626e-04
6.314789e-04 -3.362831e-05 1.036667e-04
5.617544e-04 -5.822089e-05 8.504300e-05
5.695121e-04 -6.043234e-05 8.620483e-05
6.727055e-04 -1.955904e-05 1.034281e-04
5.792935e-04 -6.730687e-05 9.818428e-05
4.996219e-04 -8.980044e-05 8.103167e-05
5.455100e-04 -8.115207e-05 8.759839e-05
1.640336e-05 2.180131e-04 -1.898277e-05
0.000000e+00 1.910276e-04 -1.403846e-05
0.000000e+00 2.166100e-04 -2.039970e-05
3.479743e-04 1.950376e-04 2.302329e-05
3.040109e-04 2.196377e-04 1.982843e-05
3.047085e-04 2.027200e-04 1.714076e-05
3.486834e-04 1.434892e-04 2.658660e-05
6.685699e-05 -2.771858e-04 1.206186e-05
8.732889e-05 -2.596598e-04 1.776751e-05
3.285330e-05 -2.799501e-04 4.018173e-06
9.134784e-05 -2.609638e-04 1.394223e-05
4.090231e-05 -2.797398e-04 4.958465e-06
1.129758e-04 -2.626288e-04 1.900493e-05
1.407671e-04 -2.403440e-04 2.962668e-05
9.270374e-05 -2.796212e-04 1.631092e-05
8.799784e-05 -2.756164e-04 1.981420e-05
-1.893909e-04 1.289462e-04 -4.708925e-04
0.000000e+00 2.178720e-04 -4.164153e-04
-2.286377e-04 4.032194e-05 -4.204055e-04
-1.752965e-04 1.022265e-04 -5.241332e-04
0.000000e+00 1.368368e-04 -3.551420e-04
-4.001726e-04 -1.752823e-04 -5.588065e-04
-3.083029e-04 7.555877e-05 -4.131691e-04
0.000000e+00 2.884911e-04 -3.985946e-04
-2.386424e-04 2.961468e-04 -5.075774e-04
-3.324848e-04 1.568226e-03 1.092544e-04
-3.792263e-04 1.612967e-03 4.078792e-05
-2.685511e-04 1.393911e-03 1.819450e-04
-4.269836e-04 1.851060e-03 4.323325e-05
1.777810e-03 4.525560e-04 8.627973e-04
9.985663e-04 1.424030e-04 3.493177e-04
1.381395e-03 7.093323e-04 3.784772e-04