# vtk DataFile Version 2.0
Simplicial Mesh Example
ASCII
DATASET UNSTRUCTURED_GRID
POINTS 926 double
3.000000e+05 -1.659466e+05 0.000000e+00
3.323841e+05 -1.500853e+05 0.000000e+00
1.000000e+05 -3.000000e+05 0.000000e+00
8.376766e+04 -3.323560e+05 0.000000e+00
3.680760e+05 -6.909438e+04 0.000000e+00
-3.000000e+05 -2.326501e+05 0.000000e+00
-3.000000e+05 -1.989752e+05 0.000000e+00
-3.324295e+05 -2.170264e+05 0.000000e+00
-2.515393e+05 -3.324613e+05 0.000000e+00
-2.666667e+05 -3.000000e+05 0.000000e+00
-1.666667e+05 -3.000000e+05 0.000000e+00
-1.507909e+05 -3.323848e+05 0.000000e+00
-1.038755e+05 3.680862e+05 0.000000e+00
-1.217391e+05 4.000000e+05 0.000000e+00
-8.379954e+04 3.323534e+05 0.000000e+00
3.000000e+05 -6.540655e+04 0.000000e+00
1.000000e+05 3.000000e+05 0.000000e+00
1.172617e+05 3.323725e+05 0.000000e+00
3.680819e+05 1.387484e+05 0.000000e+00
4.000000e+05 1.565217e+05 0.000000e+00
-3.461370e+04 -3.681008e+05 0.000000e+00
-1.739130e+04 -4.000000e+05 0.000000e+00
-1.676668e+04 -3.323444e+05 0.000000e+00
3.679951e+05 -2.423193e+05 0.000000e+00
4.000000e+05 -2.608696e+05 0.000000e+00
3.324577e+05 -2.511100e+05 0.000000e+00
-3.698054e+05 -3.472763e+05 0.000000e+00
-3.663396e+05 -3.129808e+05 0.000000e+00
-3.315797e+05 -3.410949e+05 0.000000e+00
1.731007e+05 3.680556e+05 0.000000e+00
1.913043e+05 4.000000e+05 0.000000e+00
4.000000e+05 2.956522e+05 0.000000e+00
-2.179099e+05 -3.324288e+05 0.000000e+00
-2.000000e+05 -3.000000e+05 0.000000e+00
-1.172626e+05 3.323723e+05 0.000000e+00
-1.000000e+05 3.000000e+05 0.000000e+00
3.000000e+05 -9.891990e+04 0.000000e+00
3.323674e+05 -1.164140e+05 0.000000e+00
-3.000000e+05 -3.162526e+04 0.000000e+00
-3.000000e+05 1.537267e+03 0.000000e+00
-3.324526e+05 -2.845988e+05 0.000000e+00
-3.280582e+05 -3.160567e+05 0.000000e+00
-2.333333e+05 -3.000000e+05 0.000000e+00
-1.731007e+05 -3.680556e+05 0.000000e+00
-2.077253e+05 -3.680332e+05 0.000000e+00
5.217391e+04 4.000000e+05 0.000000e+00
1.674987e+04 3.323474e+05 0.000000e+00
3.461320e+04 3.681000e+05 0.000000e+00
3.333333e+04 3.000000e+05 0.000000e+00
-3.680268e+05 2.424010e+05 0.000000e+00
-3.680500e+05 2.077851e+05 0.000000e+00
-1.731195e+05 3.680519e+05 0.000000e+00
-4.000000e+05 2.260870e+05 0.000000e+00
-2.883046e+05 -3.320639e+05 0.000000e+00
-3.323717e+05 -1.156481e+05 0.000000e+00
-3.323844e+05 -1.494568e+05 0.000000e+00
-3.323741e+05 -4.867882e+04 0.000000e+00
3.680861e+05 1.041109e+05 0.000000e+00
4.000000e+05 1.217391e+05 0.000000e+00
3.681214e+05 1.733599e+05 0.000000e+00
-4.000000e+05 2.608696e+05 0.000000e+00
1.731179e+05 -3.680539e+05 0.000000e+00
2.077389e+05 -3.680332e+05 0.000000e+00
3.324653e+05 -2.846969e+05 0.000000e+00
3.280142e+05 -3.160947e+05 0.000000e+00
2.260870e+05 -4.000000e+05 0.000000e+00
2.333333e+05 -3.000000e+05 0.000000e+00
2.515884e+05 -3.324527e+05 0.000000e+00
2.178294e+05 -3.324303e+05 0.000000e+00
1.666667e+05 -3.000000e+05 0.000000e+00
1.507941e+05 -3.323846e+05 0.000000e+00
1.843081e+05 -3.324053e+05 0.000000e+00
-2.077411e+05 3.680376e+05 0.000000e+00
-2.260870e+05 4.000000e+05 0.000000e+00
-3.323592e+05 1.803079e+04 0.000000e+00
-3.323564e+05 -1.534688e+04 0.000000e+00
-3.681082e+05 1.584064e+02 0.000000e+00
3.323394e+05 1.192487e+05 0.000000e+00
3.000000e+05 1.021602e+05 0.000000e+00
-3.323756e+05 1.180902e+05 0.000000e+00
-3.323866e+05 1.514636e+05 0.000000e+00
-4.000000e+05 -1.217391e+05 0.000000e+00
-3.680643e+05 -1.036683e+05 0.000000e+00
-3.680322e+05 -1.383008e+05 0.000000e+00
1.333333e+05 3.000000e+05 0.000000e+00
1.507909e+05 3.323848e+05 0.000000e+00
-3.324024e+05 -1.833258e+05 0.000000e+00
-1.384781e+05 -3.680720e+05 0.000000e+00
-1.038578e+05 -3.680873e+05 0.000000e+00
-1.217391e+05 -4.000000e+05 0.000000e+00
1.384965e+05 -3.680708e+05 0.000000e+00
1.565217e+05 -4.000000e+05 0.000000e+00
-4.000000e+05 1.565217e+05 0.000000e+00
-3.680901e+05 1.385746e+05 0.000000e+00
1.038746e+05 -3.680839e+05 0.000000e+00
1.217391e+05 -4.000000e+05 0.000000e+00
1.674277e+04 -3.323442e+05 0.000000e+00
3.463000e+04 -3.680990e+05 0.000000e+00
7.744455e+00 -3.681012e+05 0.000000e+00
-4.000000e+05 -1.565217e+05 0.000000e+00
-3.680143e+05 -1.729566e+05 0.000000e+00
1.739130e+04 4.000000e+05 0.000000e+00
3.325804e+05 1.861647e+05 0.000000e+00
-3.323820e+05 -8.213181e+04 0.000000e+00
-3.000000e+05 1.010248e+05 0.000000e+00
-3.323572e+05 8.476518e+04 0.000000e+00
-3.320733e+05 2.883554e+05 0.000000e+00
-6.923637e+04 -3.680930e+05 0.000000e+00
-5.217391e+04 -4.000000e+05 0.000000e+00
3.680896e+05 6.946960e+04 0.000000e+00
4.000000e+05 5.217391e+04 0.000000e+00
4.000000e+05 8.695652e+04 0.000000e+00
1.739130e+04 -4.000000e+05 0.000000e+00
2.000000e+05 -3.000000e+05 0.000000e+00
-2.000000e+05 3.000000e+05 0.000000e+00
-2.177787e+05 3.324359e+05 0.000000e+00
-1.843648e+05 3.324029e+05 0.000000e+00
-3.681034e+05 -3.444502e+04 0.000000e+00
3.680524e+05 -1.383766e+05 0.000000e+00
4.000000e+05 -1.565217e+05 0.000000e+00
3.680364e+05 -1.730173e+05 0.000000e+00
6.925236e+04 -3.680933e+05 0.000000e+00
5.217391e+04 -4.000000e+05 0.000000e+00
3.323341e+05 8.558297e+04 0.000000e+00
3.000000e+05 6.864685e+04 0.000000e+00
2.666667e+05 3.000000e+05 0.000000e+00
2.515361e+05 3.324615e+05 0.000000e+00
1.565217e+05 4.000000e+05 0.000000e+00
1.384781e+05 3.680720e+05 0.000000e+00
3.000000e+05 -2.329733e+05 0.000000e+00
3.324280e+05 -2.174304e+05 0.000000e+00
3.000000e+05 2.018902e+05 0.000000e+00
3.326080e+05 2.191835e+05 0.000000e+00
-4.000000e+05 -2.260870e+05 0.000000e+00
-3.680029e+05 -2.076147e+05 0.000000e+00
-3.679763e+05 -2.422690e+05 0.000000e+00
3.680656e+05 -1.037356e+05 0.000000e+00
4.000000e+05 -1.217391e+05 0.000000e+00
6.666667e+04 -3.000000e+05 0.000000e+00
5.025498e+04 -3.323480e+05 0.000000e+00
3.333333e+04 -3.000000e+05 0.000000e+00
2.423612e+05 -3.680038e+05 0.000000e+00
2.608696e+05 -4.000000e+05 0.000000e+00
-3.678653e+05 2.770869e+05 0.000000e+00
2.770113e+05 -3.678523e+05 0.000000e+00
-4.000000e+05 -1.739130e+04 0.000000e+00
4.000000e+05 -8.695652e+04 0.000000e+00
-3.000000e+05 1.341874e+05 0.000000e+00
-6.666667e+04 3.000000e+05 0.000000e+00
-5.025707e+04 3.323515e+05 0.000000e+00
-3.000000e+05 2.005124e+05 0.000000e+00
-3.000000e+05 2.336749e+05 0.000000e+00
-3.324312e+05 2.182807e+05 0.000000e+00
-3.333333e+04 3.000000e+05 0.000000e+00
3.663474e+05 -3.132902e+05 0.000000e+00
4.000000e+05 -3.304348e+05 0.000000e+00
3.694761e+05 -3.502454e+05 0.000000e+00
4.000000e+05 -3.652174e+05 0.000000e+00
3.000000e+05 -1.324332e+05 0.000000e+00
-6.666667e+04 -3.000000e+05 0.000000e+00
-8.379869e+04 -3.323535e+05 0.000000e+00
-3.333333e+04 -3.000000e+05 0.000000e+00
-5.025687e+04 -3.323516e+05 0.000000e+00
3.323395e+05 -1.540013e+04 0.000000e+00
3.323331e+05 1.824617e+04 0.000000e+00
3.000000e+05 1.620150e+03 0.000000e+00
-4.000000e+05 5.217391e+04 0.000000e+00
-3.681122e+05 3.476335e+04 0.000000e+00
3.681472e+05 2.079604e+05 0.000000e+00
3.681188e+05 2.425277e+05 0.000000e+00
4.000000e+05 2.260870e+05 0.000000e+00
3.680460e+05 2.771856e+05 0.000000e+00
-1.913043e+05 4.000000e+05 0.000000e+00
3.324042e+05 -1.837572e+05 0.000000e+00
3.000000e+05 3.513350e+04 0.000000e+00
-6.925390e+04 3.680922e+05 0.000000e+00
-8.695652e+04 4.000000e+05 0.000000e+00
-1.384959e+05 3.680704e+05 0.000000e+00
3.326450e+05 2.521588e+05 0.000000e+00
3.000000e+05 2.345935e+05 0.000000e+00
3.680898e+05 1.877167e+02 0.000000e+00
3.680838e+05 -3.445303e+04 0.000000e+00
4.000000e+05 -1.739130e+04 0.000000e+00
2.666667e+05 -3.000000e+05 0.000000e+00
2.882915e+05 -3.320621e+05 0.000000e+00
-4.000000e+05 1.217391e+05 0.000000e+00
-3.681035e+05 1.039715e+05 0.000000e+00
4.000000e+05 1.913043e+05 0.000000e+00
1.666667e+05 3.000000e+05 0.000000e+00
1.843130e+05 3.324055e+05 0.000000e+00
-3.686836e+05 3.117864e+05 0.000000e+00
-4.000000e+05 2.956522e+05 0.000000e+00
-1.913043e+05 -4.000000e+05 0.000000e+00
-2.423632e+05 -3.680118e+05 0.000000e+00
-2.260870e+05 -4.000000e+05 0.000000e+00
-3.000000e+05 -6.478778e+04 0.000000e+00
1.217391e+05 4.000000e+05 0.000000e+00
1.038578e+05 3.680873e+05 0.000000e+00
-1.333333e+05 3.000000e+05 0.000000e+00
-1.507965e+05 3.323846e+05 0.000000e+00
3.680174e+05 -2.076594e+05 0.000000e+00
4.000000e+05 -2.260870e+05 0.000000e+00
-2.608696e+05 -4.000000e+05 0.000000e+00
-2.771049e+05 -3.678525e+05 0.000000e+00
2.179096e+05 3.324288e+05 0.000000e+00
2.000000e+05 3.000000e+05 0.000000e+00
-1.333333e+05 -3.000000e+05 0.000000e+00
-1.000000e+05 -3.000000e+05 0.000000e+00
-1.172617e+05 -3.323725e+05 0.000000e+00
-3.324670e+05 2.517626e+05 0.000000e+00
1.172807e+05 -3.323682e+05 0.000000e+00
4.000000e+05 -5.217391e+04 0.000000e+00
-3.324074e+05 1.848350e+05 0.000000e+00
-2.513373e+05 3.324609e+05 0.000000e+00
-2.333333e+05 3.000000e+05 0.000000e+00
8.695652e+04 -4.000000e+05 0.000000e+00
-4.000000e+05 1.913043e+05 0.000000e+00
-3.680735e+05 1.731789e+05 0.000000e+00
-3.679440e+05 -2.770299e+05 0.000000e+00
-4.000000e+05 -2.608696e+05 0.000000e+00
6.923623e+04 3.680926e+05 0.000000e+00
8.695652e+04 4.000000e+05 0.000000e+00
2.608696e+05 4.000000e+05 0.000000e+00
2.771027e+05 3.678569e+05 0.000000e+00
2.423629e+05 3.680119e+05 0.000000e+00
2.956522e+05 4.000000e+05 0.000000e+00
3.121717e+05 3.686941e+05 0.000000e+00
-3.709768e+05 3.470258e+05 0.000000e+00
-3.410676e+05 3.315303e+05 0.000000e+00
3.679565e+05 -2.771494e+05 0.000000e+00
4.000000e+05 -2.956522e+05 0.000000e+00
2.260870e+05 4.000000e+05 0.000000e+00
2.077253e+05 3.680332e+05 0.000000e+00
-3.000000e+05 -1.653002e+05 0.000000e+00
-3.681074e+05 6.936799e+04 0.000000e+00
-4.000000e+05 8.695652e+04 0.000000e+00
-2.847890e+05 3.324722e+05 0.000000e+00
-2.666667e+05 3.000000e+05 0.000000e+00
6.666667e+04 3.000000e+05 0.000000e+00
8.379885e+04 3.323535e+05 0.000000e+00
3.324998e+05 2.850782e+05 0.000000e+00
3.000000e+05 2.672967e+05 0.000000e+00
-5.217391e+04 4.000000e+05 0.000000e+00
-3.463078e+04 3.680998e+05 0.000000e+00
-4.000000e+05 1.739130e+04 0.000000e+00
1.333333e+05 -3.000000e+05 0.000000e+00
-1.565217e+05 -4.000000e+05 0.000000e+00
[...]
POINT_DATA 926
VECTORS displacement double
-5.447808e-02 1.136349e-02 -2.958496e-02
-3.822357e-02 8.426183e-03 -2.622182e-02
-9.418654e-02 2.263728e-02 -5.541816e-02
-9.250062e-02 1.776518e-02 -5.264762e-02
-1.973231e-02 -5.903777e-04 -2.509677e-02
-4.487997e-02 1.213087e-02 -8.536364e-02
-7.497662e-02 -1.422104e-02 -7.772422e-02
-3.591088e-02 2.468826e-02 -9.226858e-02
-2.332126e-02 1.930623e-02 -7.068543e-02
-2.551052e-02 2.291618e-02 -7.528749e-02
-4.889823e-02 -1.313135e-02 -7.865406e-02
-4.849821e-02 2.517857e-03 -7.766078e-02
-5.266614e-02 -1.549232e-02 -5.207911e-02
-4.817701e-02 0.000000e+00 -4.966757e-02
-5.765281e-02 -2.747667e-02 -5.827615e-02
-5.987492e-02 1.667689e-04 -3.389304e-02
-8.311553e-02 -3.379471e-02 -4.354002e-02
-7.918413e-02 -2.364469e-02 -3.528362e-02
-1.692309e-02 -2.086912e-02 -2.258933e-02
0.000000e+00 -2.084065e-02 -2.157752e-02
-7.697179e-02 7.028205e-03 -6.810162e-02
-8.094654e-02 0.000000e+00 -6.379144e-02
-7.778714e-02 8.107539e-03 -7.150787e-02
-1.574627e-02 9.848456e-03 -2.078554e-02
0.000000e+00 9.157352e-03 -1.992849e-02
-3.261463e-02 1.101741e-02 -2.208148e-02
-2.366896e-03 2.514677e-02 -5.384624e-02
-3.574297e-03 3.777515e-02 -6.220250e-02
-6.551170e-03 2.633291e-02 -5.834245e-02
-6.907625e-02 -9.429230e-03 -2.598404e-02
-6.483135e-02 0.000000e+00 -2.395038e-02
0.000000e+00 -1.345855e-02 -1.838708e-02
-3.218721e-02 1.380091e-02 -7.455988e-02
-4.420326e-02 -2.879960e-03 -7.889274e-02
-4.990551e-02 -2.784741e-02 -5.892567e-02
-5.421000e-02 -2.794042e-02 -6.645744e-02
-5.864884e-02 4.733873e-03 -3.275495e-02
-3.985276e-02 5.443672e-03 -2.741762e-02
-4.175737e-01 -1.473142e-02 1.221837e-01
-4.094014e-01 3.151351e-02 1.152039e-01
-1.160843e-02 3.869955e-02 -7.415956e-02
-8.313067e-03 3.371035e-02 -6.475491e-02
-3.579622e-02 1.036747e-02 -7.794061e-02
-4.044252e-02 7.348719e-03 -7.203509e-02
-3.085755e-02 9.481825e-03 -6.932406e-02
-7.774644e-02 0.000000e+00 -3.782808e-02
-7.609208e-02 -2.759114e-02 -4.929407e-02
-7.713725e-02 -1.407624e-02 -4.151261e-02
-7.899363e-02 -3.522233e-02 -5.477841e-02
-5.068910e-03 -6.777381e-02 -7.105178e-02
-8.906939e-03 -6.859109e-02 -8.570162e-02
-3.564586e-02 -1.655277e-02 -5.075608e-02
0.000000e+00 -7.098255e-02 -7.660785e-02
-1.471095e-02 2.493633e-02 -6.606945e-02
-1.436109e-01 -3.013116e-02 -7.009093e-02
-9.676591e-02 -1.288854e-02 -8.266940e-02
-2.252728e-01 -2.076896e-02 -4.173043e-02
-1.791730e-02 -1.929357e-02 -2.354021e-02
0.000000e+00 -1.987118e-02 -2.248008e-02
-1.588990e-02 -2.129898e-02 -2.159196e-02
0.000000e+00 -6.556696e-02 -6.233992e-02
-8.190454e-02 7.475313e-03 -3.187024e-02
-7.304749e-02 6.311418e-03 -2.747071e-02
-3.085230e-02 9.738179e-03 -2.090497e-02
-3.133951e-02 7.839983e-03 -2.022026e-02
-6.699643e-02 0.000000e+00 -2.498737e-02
-6.988632e-02 1.532629e-02 -2.898856e-02
-6.078285e-02 1.005372e-02 -2.463274e-02
-7.198500e-02 1.212353e-02 -2.833584e-02
-8.794727e-02 2.061751e-02 -4.032463e-02
-8.812567e-02 1.624272e-02 -3.874900e-02
-8.090024e-02 1.392862e-02 -3.299943e-02
-2.749699e-02 -1.722590e-02 -4.873559e-02
-2.320160e-02 0.000000e+00 -4.521580e-02
-1.978383e-01 9.865016e-03 -4.681428e-02
-2.266529e-01 -3.643860e-03 -3.519931e-02
-8.662344e-02 -7.914680e-03 -1.091925e-01
-3.692693e-02 -2.157766e-02 -2.564410e-02
-5.529111e-02 -2.265650e-02 -3.052580e-02
-9.101544e-02 -8.735786e-03 -9.494053e-02
-5.668708e-02 -3.063718e-02 -9.885575e-02
0.000000e+00 1.159626e-02 -1.193817e-01
-6.567467e-02 -2.055933e-03 -1.090697e-01
-4.624761e-02 1.063065e-02 -1.105485e-01
-8.092936e-02 -3.123547e-02 -3.784818e-02
-7.533196e-02 -2.116655e-02 -3.094150e-02
-6.193879e-02 5.340453e-03 -9.210671e-02
-4.979119e-02 5.668344e-03 -7.339338e-02
-5.933495e-02 5.657874e-03 -7.320937e-02
-5.420034e-02 0.000000e+00 -7.125409e-02
-8.830440e-02 8.558884e-03 -3.724003e-02
-8.476832e-02 0.000000e+00 -3.332775e-02
0.000000e+00 -6.163894e-02 -1.053644e-01
-2.650962e-02 -4.974628e-02 -1.106801e-01
-9.174263e-02 9.395613e-03 -4.353218e-02
-8.992372e-02 0.000000e+00 -3.892458e-02
-8.472831e-02 1.271832e-02 -6.600556e-02
-8.932644e-02 9.044763e-03 -5.684294e-02
-8.393952e-02 7.426533e-03 -6.355320e-02
0.000000e+00 2.503130e-02 -1.142723e-01
-2.944591e-02 2.579218e-02 -1.075303e-01
-7.511934e-02 0.000000e+00 -4.166310e-02
-3.252477e-02 -2.277349e-02 -2.308881e-02
-1.788683e-01 -3.255269e-02 -5.465574e-02
-1.937471e-01 5.572063e-02 -2.746008e-02
-1.388018e-01 9.316407e-03 -8.443229e-02
-7.489985e-03 -5.413212e-02 -5.625454e-02
-6.828975e-02 5.577951e-03 -7.168271e-02
-7.289746e-02 0.000000e+00 -6.789845e-02
-1.877800e-02 -1.668719e-02 -2.435566e-02
0.000000e+00 -1.479008e-02 -2.384679e-02
0.000000e+00 -1.780982e-02 -2.327040e-02
-8.704162e-02 0.000000e+00 -5.835237e-02
-8.017685e-02 1.815121e-02 -3.413756e-02
-3.332419e-02 -3.685948e-02 -6.469798e-02
-2.653967e-02 -3.271357e-02 -5.466830e-02
-3.429359e-02 -3.067067e-02 -5.700070e-02
-8.938563e-02 -7.350058e-03 -1.067229e-01
-1.845815e-02 6.341294e-03 -2.376739e-02
0.000000e+00 7.289361e-03 -2.259230e-02
-1.758972e-02 8.572819e-03 -2.284270e-02
-9.198253e-02 9.590887e-03 -5.020206e-02
-9.096646e-02 0.000000e+00 -5.184558e-02
-3.884160e-02 -1.927111e-02 -2.688789e-02
-5.743784e-02 -1.936996e-02 -3.225290e-02
-4.937214e-02 -1.835038e-02 -2.240277e-02
-5.153503e-02 -1.372164e-02 -2.182114e-02
-7.143227e-02 0.000000e+00 -2.674527e-02
-7.466019e-02 -1.086378e-02 -2.928897e-02
-4.911739e-02 1.339180e-02 -2.572395e-02
-3.456328e-02 1.124159e-02 -2.349159e-02
-4.598405e-02 -2.485235e-02 -2.514775e-02
-3.032850e-02 -2.160156e-02 -2.183518e-02
0.000000e+00 4.647050e-02 -9.310891e-02
-1.724951e-02 3.879062e-02 -9.937082e-02
-9.214250e-03 4.606268e-02 -8.753996e-02
-1.925382e-02 3.227477e-03 -2.455094e-02
0.000000e+00 4.683889e-03 -2.338108e-02
-9.025003e-02 1.863330e-02 -6.360304e-02
-9.004221e-02 1.632422e-02 -5.925730e-02
-8.450070e-02 1.272495e-02 -7.019459e-02
-6.220912e-02 5.207927e-03 -2.400015e-02
-5.533941e-02 0.000000e+00 -2.219154e-02
-3.253218e-03 -6.014408e-02 -5.751125e-02
-4.984951e-02 4.239207e-03 -2.153924e-02
0.000000e+00 -8.938774e-03 -1.227487e-01
0.000000e+00 1.241777e-03 -2.395782e-02
-1.229192e-01 2.644104e-02 -6.943056e-02
-6.085757e-02 -2.891166e-02 -6.567834e-02
-6.495286e-02 -2.779297e-02 -5.650266e-02
-4.024060e-02 -3.967148e-02 -8.386610e-02
-2.451465e-02 -5.282787e-02 -7.628209e-02
-1.946202e-02 -5.920370e-02 -8.225846e-02
-6.781992e-02 -3.060772e-02 -6.248257e-02
-1.483221e-02 7.039744e-03 -1.912925e-02
0.000000e+00 5.633755e-03 -1.857076e-02
-1.294360e-02 4.252144e-03 -1.854934e-02
0.000000e+00 2.947980e-03 -1.821129e-02
-5.687943e-02 8.581687e-03 -3.129841e-02
-6.320693e-02 -1.355517e-02 -7.869750e-02
-6.287914e-02 1.234343e-03 -7.744249e-02
-6.922929e-02 -6.220087e-03 -7.699878e-02
-7.098094e-02 6.557843e-03 -7.480756e-02
-4.178353e-02 -7.337019e-03 -2.888184e-02
-4.135267e-02 -1.182730e-02 -2.858248e-02
-6.015753e-02 -1.006483e-02 -3.430930e-02
0.000000e+00 -2.267005e-02 -1.232980e-01
-7.570501e-02 -1.312206e-02 -1.120570e-01
-1.474020e-02 -2.051943e-02 -2.062623e-02
-1.366147e-02 -1.861908e-02 -1.980137e-02
0.000000e+00 -1.923958e-02 -1.976225e-02
-1.293225e-02 -1.577608e-02 -1.903262e-02
-3.112420e-02 0.000000e+00 -4.748334e-02
-3.647594e-02 1.040060e-02 -2.483234e-02
-5.918530e-02 -1.500875e-02 -3.363737e-02
-6.069608e-02 -1.527129e-02 -5.082765e-02
-5.654502e-02 0.000000e+00 -4.912338e-02
-4.413667e-02 -1.592423e-02 -5.195333e-02
-2.825664e-02 -1.934402e-02 -2.066301e-02
-4.291040e-02 -2.302758e-02 -2.338597e-02
-1.982427e-02 -9.157782e-03 -2.531143e-02
-1.992869e-02 -4.827528e-03 -2.536753e-02
0.000000e+00 -6.946337e-03 -2.442563e-02
-5.759866e-02 1.269649e-02 -2.506783e-02
-4.700198e-02 8.168750e-03 -2.178383e-02
0.000000e+00 -4.866116e-02 -1.160520e-01
-4.221954e-02 -3.418451e-02 -1.165878e-01
0.000000e+00 -2.062957e-02 -2.062150e-02
-7.611643e-02 -2.800565e-02 -3.273573e-02
-6.925304e-02 -1.858899e-02 -2.719453e-02
-2.485106e-03 -4.699752e-02 -4.678633e-02
0.000000e+00 -5.417502e-02 -5.032963e-02
-3.472061e-02 0.000000e+00 -6.821118e-02
-2.190175e-02 1.158748e-02 -6.524097e-02
-2.530962e-02 0.000000e+00 -6.461373e-02
-3.831925e-01 -7.187092e-02 9.036114e-02
-7.592946e-02 0.000000e+00 -3.007765e-02
-7.796433e-02 -1.220864e-02 -3.320166e-02
-4.742482e-02 -2.889880e-02 -6.661310e-02
-4.212458e-02 -2.896313e-02 -5.840157e-02
-1.679623e-02 9.773188e-03 -2.183463e-02
0.000000e+00 9.565793e-03 -2.074029e-02
-1.719031e-02 0.000000e+00 -6.019946e-02
-1.433520e-02 1.350243e-02 -6.046182e-02
-6.124375e-02 -1.612549e-02 -2.421641e-02
-6.898788e-02 -2.463206e-02 -2.849294e-02
-5.406831e-02 -2.031493e-02 -7.963905e-02
-5.873433e-02 -2.076956e-02 -7.952446e-02
-5.601263e-02 3.020376e-03 -7.722312e-02
-1.135166e-02 -6.121790e-02 -6.953311e-02
-9.206741e-02 1.767612e-02 -4.535870e-02
0.000000e+00 -2.731543e-03 -2.431698e-02
-3.312989e-02 -4.918289e-02 -9.259126e-02
-1.932676e-02 -3.437226e-02 -5.157095e-02
-2.587045e-02 -4.138175e-02 -6.218162e-02
-9.197986e-02 0.000000e+00 -4.515067e-02
0.000000e+00 -6.961722e-02 -9.153983e-02
-1.577669e-02 -6.226098e-02 -9.960630e-02
-4.999396e-03 4.584473e-02 -7.435704e-02
0.000000e+00 4.849334e-02 -7.934705e-02
-7.874790e-02 -1.331074e-02 -3.735056e-02
-7.803911e-02 0.000000e+00 -3.388204e-02
-4.661277e-02 0.000000e+00 -2.005965e-02
-4.198920e-02 -5.991463e-03 -1.977233e-02
-5.245589e-02 -6.959612e-03 -2.117904e-02
-3.580911e-02 0.000000e+00 -1.896096e-02
-3.079018e-02 -5.171009e-03 -1.865568e-02
-2.251693e-03 -2.966446e-02 -3.938013e-02
-5.099867e-03 -3.734477e-02 -4.379854e-02
-1.491620e-02 8.934365e-03 -1.986077e-02
0.000000e+00 7.782604e-03 -1.915557e-02
-5.644331e-02 0.000000e+00 -2.169817e-02
-6.161993e-02 -8.179963e-03 -2.326970e-02
-1.331890e-01 -5.014323e-02 -4.730361e-02
-6.315915e-02 -2.086907e-02 -1.157358e-01
0.000000e+00 -3.353279e-02 -1.218942e-01
-1.304000e-02 -3.525417e-02 -4.862473e-02
-1.810846e-02 -4.621474e-02 -5.891316e-02
-8.238132e-02 -3.533397e-02 -4.929217e-02
-8.047769e-02 -2.572696e-02 -4.004733e-02
-2.655907e-02 -1.605510e-02 -1.969676e-02
-4.012762e-02 -1.999796e-02 -2.174853e-02
-6.413289e-02 0.000000e+00 -4.752043e-02
-6.772421e-02 -1.498874e-02 -4.844123e-02
0.000000e+00 -1.415414e-02 -1.231930e-01
-9.247205e-02 2.216527e-02 -4.765005e-02
-4.435118e-02 0.000000e+00 -7.040005e-02
0.000000e+00 -1.107292e-02 -2.423281e-02
-6.034319e-02 -4.934067e-03 -3.438629e-02
-7.330874e-02 -1.441106e-02 -4.554928e-02
-7.047502e-02 0.000000e+00 -4.497831e-02
-4.391979e-02 1.029962e-02 -2.226373e-02
-7.942593e-02 -2.710088e-02 -4.478403e-02
-1.759146e-02 -4.312454e-03 -1.799536e-02
-2.471309e-02 -8.895470e-03 -1.857972e-02
-6.921271e-02 -1.346972e-02 -8.427586e-02
0.000000e+00 0.000000e+00 -3.444997e-02
-2.753809e-03 0.000000e+00 -3.496716e-02
0.000000e+00 -1.990236e-02 -3.613691e-02
-1.069957e-02 0.000000e+00 -5.554599e-02
-8.509772e-03 1.429743e-02 -5.560434e-02
-3.988064e-02 -1.187844e-02 -2.007803e-02
-7.719275e-02 3.721472e-03 -7.500938e-02
-3.509611e-01 7.059422e-02 7.323088e-02
-1.759861e-01 1.505661e-02 -6.393589e-02
-3.903543e-03 1.434688e-02 -5.164855e-02
-5.856986e-03 0.000000e+00 -5.143350e-02
-4.168666e-02 -2.749223e-03 -2.876516e-02
-4.101031e-02 1.617894e-03 -2.825129e-02
-4.032934e-03 -1.758896e-02 -3.709098e-02
-4.032791e-02 -1.597414e-02 -2.784719e-02
0.000000e+00 0.000000e+00 -4.792548e-02
-2.490788e-03 0.000000e+00 -4.880849e-02
-8.294589e-02 -9.111890e-03 -1.074992e-01
-1.440419e-02 0.000000e+00 -1.830888e-02
0.000000e+00 0.000000e+00 -1.812523e-02
-1.685543e-02 3.006771e-02 -7.304121e-02
-2.681878e-02 -1.240027e-02 -1.916102e-02
-1.993806e-02 -1.773454e-02 -4.617589e-02
-1.603820e-02 0.000000e+00 -4.252803e-02
-1.342655e-02 -1.781210e-02 -4.306555e-02
-1.214042e-02 -4.722927e-02 -5.587415e-02
-8.161446e-03 -3.861544e-02 -4.661501e-02
-8.153088e-03 -1.905238e-02 -3.993104e-02
-6.155129e-03 0.000000e+00 -3.673309e-02
-2.914231e-02 5.692829e-03 -1.954495e-02
-3.647672e-02 3.482191e-03 -1.979492e-02
-1.949204e-02 -1.321047e-02 -2.493299e-02
-2.212818e-02 2.737621e-03 -1.873533e-02
-7.102924e-02 -2.725384e-02 -5.357460e-02
-3.474326e-02 -2.276109e-02 -2.435265e-02
-2.791122e-01 7.313019e-02 1.973798e-02
-1.275703e-02 -1.183667e-02 -1.840148e-02
0.000000e+00 0.000000e+00 -1.768882e-02
0.000000e+00 -4.802092e-03 -1.774846e-02
-1.223599e-02 0.000000e+00 -1.779903e-02
-1.088671e-02 -7.366505e-03 -1.800114e-02
-6.392862e-02 0.000000e+00 -7.039636e-02
0.000000e+00 8.950540e-03 -2.174847e-02
-4.078722e-02 -3.206001e-02 -6.660393e-02
-2.023951e-02 3.591626e-02 -8.512411e-02
-4.062144e-02 8.180469e-03 -7.676077e-02
-3.953952e-02 0.000000e+00 -4.906567e-02
-2.427662e-02 0.000000e+00 -1.814907e-02
-4.655277e-02 1.247285e-02 -2.378907e-02
-7.413659e-02 -3.373736e-02 -5.948400e-02
-7.696297e-02 0.000000e+00 -2.866611e-02
-5.183700e-02 1.302569e-02 -2.770610e-02
0.000000e+00 1.021146e-03 -1.235652e-01
-5.992155e-02 -2.121301e-02 -2.496706e-02
-1.061165e-02 0.000000e+00 -3.926942e-02
-2.506169e-02 2.905900e-02 -8.128070e-02
-2.865444e-02 0.000000e+00 -1.896984e-02
0.000000e+00 -9.379251e-03 -1.799446e-02
0.000000e+00 -1.678647e-02 -1.905960e-02
-3.767498e-02 -1.591511e-02 -2.058752e-02
0.000000e+00 3.785889e-02 -1.053171e-01
-4.235111e-02 0.000000e+00 -2.026445e-02
0.000000e+00 1.719127e-02 -5.006427e-02
0.000000e+00 -5.119173e-03 -1.246740e-01
0.000000e+00 3.228218e-02 -5.651443e-02
-1.552708e-02 -5.543486e-02 -6.661269e-02
0.000000e+00 4.322335e-02 -6.672004e-02
-5.248881e-02 -2.460797e-02 -2.877125e-02
0.000000e+00 -3.836617e-02 -4.162601e-02
-2.319833e-01 -5.786608e-02 -7.460424e-03
-3.383911e-01 -8.299533e-02 6.874788e-02
-2.078419e-01 -5.689506e-02 -1.787470e-02
-2.443082e-01 -8.495085e-02 1.780863e-02
-2.002097e-01 -7.717705e-02 -6.887586e-03
-5.089061e-02 -2.517565e-02 -2.801797e-02
-4.080960e-02 -2.402711e-02 -2.496918e-02
-4.217671e-02 -2.405093e-02 -2.567890e-02
-4.754175e-02 -2.522644e-02 -2.614500e-02
-2.916144e-01 -9.084304e-02 4.386895e-02
-2.606714e-01 -7.267602e-02 1.752267e-02
-3.145170e-01 -8.764553e-02 5.733747e-02
-2.464751e-01 -7.278531e-02 1.116372e-02
-2.673937e-01 -8.825581e-02 3.118546e-02
-5.008361e-02 -2.534209e-02 -2.755771e-02
-4.924388e-02 -2.540561e-02 -2.706519e-02
-4.499917e-02 -2.469720e-02 -2.597479e-02
-4.577276e-02 -2.471752e-02 -2.635494e-02
-4.837731e-02 -2.534729e-02 -2.661618e-02
1.166998e-01 2.260959e-01 9.053620e-02
-3.076238e-03 8.936662e-02 -3.878114e-02
3.101047e-02 8.966358e-02 -1.695892e-02
-3.472051e-02 2.582358e-02 -6.409815e-02
-6.165628e-02 -2.127346e-02 -7.191742e-02
-6.845343e-02 -2.784287e-02 -6.946558e-02
-7.519517e-02 -3.371613e-02 -6.550957e-02
-2.701595e-02 -4.398374e-02 -6.989230e-02
-2.611389e-02 -4.711903e-02 -7.313028e-02
-3.481373e-02 -3.425292e-02 -7.178097e-02
9.762213e-01 1.358551e+00 3.216573e+00
4.256122e-01 1.692569e+00 5.314686e+00
3.100100e-01 1.654749e+00 2.928289e+00
-5.797274e-02 -2.416103e-02 -2.564098e-02
-4.089534e-02 3.869830e-02 -6.339650e-02
-5.600713e-02 4.067263e-03 -7.159640e-02
-7.660699e-02 -3.194593e-02 -3.447260e-02
-8.248080e-02 -3.560612e-02 -4.049149e-02
9.492564e-02 4.575565e-01 2.497826e-01
7.030382e-02 2.537700e-01 9.390359e-02
7.533498e-03 3.742004e-01 1.799211e-01
-7.288527e-03 2.007055e-01 2.305953e-02
-2.832225e-03 1.327621e-01 -1.424208e-02
-8.726038e-02 -3.734521e-02 -5.176181e-02
-8.724870e-02 -3.520317e-02 -6.351787e-02
-3.498126e-02 6.029751e-03 -6.768948e-02
-2.845587e-02 1.887637e-02 -5.976785e-02
3.260114e-02 6.545938e-02 -2.962561e-02
-4.345216e-02 -3.138105e-02 -8.042414e-02
-8.501302e-02 -3.959398e-02 -5.389551e-02
-8.535474e-02 -3.838205e-02 -4.708672e-02
-4.129025e-02 -2.600699e-02 -7.242597e-02
-4.741753e-02 -1.503684e-02 -7.274018e-02
-9.104628e-02 8.989875e-01 8.252715e-01
-6.698559e-02 4.956063e-01 2.914771e-01
-8.706421e-02 -4.021041e-02 -5.079519e-02
-8.847785e-02 -3.968993e-02 -5.444461e-02
-8.715798e-02 -3.955174e-02 -6.115980e-02
-8.384772e-02 -3.778818e-02 -4.318860e-02
2.721770e-01 8.039995e-01 7.430008e-01
-9.926953e-01 7.311681e-01 1.385008e+00
-5.653619e-02 -1.507433e-02 -7.201528e-02
-1.956953e-01 6.302983e-01 4.968411e-01
-5.192108e-02 6.056832e-03 -7.203537e-02
-5.282038e-02 1.000969e-01 -3.722109e-02
-7.127926e-02 2.350313e-01 5.291698e-02
1.430934e-01 1.163167e+00 1.356436e+00
-3.540176e-01 9.566036e-01 1.060130e+00
-2.387365e-01 1.434305e+00 1.937041e+00
-8.198739e-02 -3.796445e-02 -6.578291e-02
-8.028454e-02 -3.364607e-02 -6.958707e-02
-8.040434e-02 -2.724597e-02 -6.849746e-02
-7.248929e-02 -2.295142e-02 -7.312053e-02
-8.128562e-02 -3.818199e-02 -6.048783e-02
-6.328830e-02 -1.486564e-02 -7.339068e-02
-7.250359e-02 1.799608e-02 -6.983570e-02
-1.120771e-01 1.112304e-01 -3.047516e-02
-6.990309e-01 1.577407e-02 4.373967e-01
-7.419613e-02 4.385974e-05 -7.311332e-02
-5.251307e-02 -2.417244e-02 -2.476941e-02
-5.951348e-02 -2.806070e-02 -2.976614e-02
-6.434666e-01 1.357752e-01 3.775777e-01
-1.075529e+00 1.717580e-01 1.099683e+00
-8.703054e-01 3.577596e-01 7.527056e-01
-1.448493e+00 6.086648e-01 2.344806e+00
4.888611e-02 7.065438e-01 5.345886e-01
-5.858244e-01 3.591945e-01 4.476438e-01
-3.610873e-01 2.759457e-01 1.911045e-01
-3.420695e-01 1.671044e-01 1.046999e-01
-2.217935e-01 1.139161e-01 2.707386e-02
-1.168438e-01 2.087122e-01 2.434038e-02
-4.202672e-02 9.240780e-02 -4.195202e-02
-2.951211e-02 2.243691e-01 3.851433e-02
-5.399464e-01 1.709890e+00 3.819553e+00
-8.372729e-01 1.266661e+00 5.627209e+00
1.368421e-01 1.723631e-01 7.714576e-02
-1.267328e-01 8.443426e-02 -3.247104e-02
-2.196940e-01 1.791233e-01 5.192578e-02
-1.979659e-01 2.411007e-01 7.490500e-02
-3.523660e-01 4.108596e-01 2.809290e-01
3.134029e-01 2.457327e-01 2.418537e-01
-4.837032e-01 1.738246e-01 2.379286e-01
-6.734258e-01 -1.325277e-01 4.387621e-01
-8.511571e-02 -3.542826e-02 -6.649907e-02
-7.655228e-02 -3.374001e-02 -3.600150e-02
-6.822801e-02 -2.802933e-02 -2.959294e-02
5.724077e-01 4.827306e-01 6.929984e-01
3.110635e-01 3.793526e-01 3.412808e-01
-1.307129e+00 1.201661e+00 3.374995e+00
-5.365359e-02 2.249068e-02 -6.805804e-02
-5.264871e-02 2.602153e-02 -6.809898e-02
-5.175415e-02 -1.525455e-02 -7.199483e-02
-7.352935e-02 -2.945728e-02 -7.160867e-02
-6.486298e-02 9.277306e-02 -3.936567e-02
-6.524423e-02 -2.911116e-02 -2.970241e-02
1.267861e-01 1.092386e-01 3.602037e-02
1.180435e-02 3.145166e-02 -4.576852e-02
-4.366036e-02 -2.201277e-02 -7.615446e-02
-5.003243e-02 -8.165092e-03 -6.946910e-02
-6.264410e-01 5.846008e-01 6.749536e-01
-8.047587e-01 1.231123e+00 1.909686e+00
-4.200041e-01 7.383761e-01 6.832501e-01
-3.682402e-02 6.965433e-02 -5.211734e-02
-6.803771e-02 -1.974024e-02 -7.306738e-02
4.665452e-01 6.843030e-01 8.109926e-01
2.072557e-01 4.496272e-01 3.418506e-01
-8.825647e-02 -3.364408e-02 -5.859816e-02
-1.160582e+00 -1.069327e-01 1.165057e+00
-1.222471e-01 4.734500e-02 -4.885288e-02
-7.319738e-02 -3.161298e-02 -3.706984e-02
-8.372589e-02 -3.751218e-02 -4.374628e-02
-5.293378e-02 1.673812e-02 -6.908960e-02
-1.605934e+00 3.666641e-02 2.526278e+00
8.510141e-01 8.443419e-01 1.576597e+00
5.673502e-01 1.159426e+00 1.679480e+00
-8.401480e-02 -3.420319e-02 -4.686409e-02
-7.961608e-02 -3.498621e-02 -4.084179e-02
-1.283703e-01 3.866020e-01 1.927509e-01
-7.230622e-02 6.881887e-02 -5.080394e-02
-4.890435e-02 -4.858324e-03 -7.323247e-02
-5.324339e-02 1.312769e-02 -6.962680e-02
-8.656748e-02 -4.065283e-02 -5.834553e-02
-5.842894e-02 -8.625273e-03 -7.151231e-02
-6.923091e-02 -2.070479e-02 -7.226220e-02
-1.768669e+00 4.894149e-01 4.630637e+00
-7.369637e-02 -3.290725e-02 -3.478312e-02
-2.317361e-01 4.369093e-01 2.501456e-01
-6.928248e-02 -3.123361e-02 -3.342296e-02
-5.677856e-02 -2.711936e-02 -2.757714e-02
-6.778583e-02 3.245429e-02 -6.632045e-02
-4.645955e-01 -1.267830e-01 1.972868e-01
-5.452898e-02 -2.671635e-02 -2.839350e-02
-6.233376e-02 -2.831447e-02 -3.145230e-02
-6.198479e-01 -1.624287e-01 3.728138e-01
-8.143883e-01 -2.154594e-01 6.745797e-01
-1.046882e+00 -2.285980e-01 1.052802e+00
-1.300041e+00 -2.743764e-01 1.623963e+00
-1.546861e+00 -2.361373e-01 2.333709e+00
-1.774679e+00 -1.955976e-01 3.370250e+00
-1.779596e+00 8.536212e-03 4.471515e+00