# vtk DataFile Version 2.0
Simplicial Mesh Example
ASCII
DATASET UNSTRUCTURED_GRID
POINTS 113 double
-1.493375e+05 -8.775002e+04 -3.000000e+04
-1.487615e+05 -8.092905e+04 -2.653765e+04
-1.427082e+05 -8.479848e+04 -3.000000e+04
-1.481854e+05 -7.410809e+04 -2.307531e+04
-1.421322e+05 -7.797751e+04 -2.653765e+04
-1.360790e+05 -8.184694e+04 -3.000000e+04
-1.547800e+05 -7.832338e+04 -2.375000e+04
-1.602225e+05 -6.889674e+04 -1.750000e+04
-1.542039e+05 -7.150241e+04 -2.028765e+04
-6.978636e+04 -5.233156e+04 -3.000000e+04
-7.566966e+04 -4.978090e+04 -2.727311e+04
-8.155297e+04 -4.723023e+04 -2.454623e+04
-7.522883e+04 -4.290492e+04 -2.375000e+04
-8.067130e+04 -3.347828e+04 -1.750000e+04
-8.304488e+04 -5.823464e+04 -3.000000e+04
-7.641562e+04 -5.528310e+04 -3.000000e+04
-8.229893e+04 -5.273243e+04 -2.727311e+04
-8.111214e+04 -4.035426e+04 -2.102311e+04
-1.656649e+05 -5.947010e+04 -1.125000e+04
-1.711074e+05 -5.004346e+04 -5.000000e+03
-1.650889e+05 -5.264913e+04 -7.787654e+03
-1.596464e+05 -6.207577e+04 -1.403765e+04
-1.590704e+05 -5.525481e+04 -1.057531e+04
-1.578489e+05 -4.414038e+04 -5.000000e+03
-1.584596e+05 -4.969759e+04 -7.787654e+03
-1.644781e+05 -4.709192e+04 -5.000000e+03
-8.611378e+04 -2.405164e+04 -1.125000e+04
-9.155625e+04 -1.462500e+04 -5.000000e+03
-9.199708e+04 -2.150098e+04 -8.523114e+03
-8.655461e+04 -3.092762e+04 -1.477311e+04
-9.243792e+04 -2.837695e+04 -1.204623e+04
-9.818551e+04 -1.757654e+04 -5.000000e+03
-1.048148e+05 -2.052808e+04 -5.000000e+03
-9.862635e+04 -2.445251e+04 -8.523114e+03
-1.355029e+05 -7.502598e+04 -2.653765e+04
-1.294497e+05 -7.889540e+04 -3.000000e+04
-1.349269e+05 -6.820501e+04 -2.307531e+04
-1.288737e+05 -7.207444e+04 -2.653765e+04
-1.228205e+05 -7.594386e+04 -3.000000e+04
-1.095619e+05 -7.004079e+04 -3.000000e+04
-1.161912e+05 -7.299233e+04 -3.000000e+04
-1.155132e+05 -6.593317e+04 -2.643597e+04
-1.221425e+05 -6.888471e+04 -2.643597e+04
-1.214644e+05 -6.182556e+04 -2.287193e+04
-1.281957e+05 -6.501529e+04 -2.297362e+04
-9.630341e+04 -6.413771e+04 -3.000000e+04
-8.967414e+04 -6.118618e+04 -3.000000e+04
-9.555745e+04 -5.863551e+04 -2.727311e+04
-8.892819e+04 -5.568397e+04 -2.727311e+04
-9.481150e+04 -5.313331e+04 -2.454623e+04
-1.029327e+05 -6.708925e+04 -3.000000e+04
-1.022547e+05 -6.003010e+04 -2.643597e+04
-1.088839e+05 -6.298163e+04 -2.643597e+04
-1.082059e+05 -5.592248e+04 -2.287193e+04
-1.015087e+05 -5.452789e+04 -2.370908e+04
-1.114440e+05 -2.347962e+04 -5.000000e+03
-1.180733e+05 -2.643115e+04 -5.000000e+03
-1.052556e+05 -2.740405e+04 -8.523114e+03
-1.056964e+05 -3.428003e+04 -1.204623e+04
-1.118849e+05 -3.035559e+04 -8.523114e+03
-1.247026e+05 -2.938269e+04 -5.000000e+03
-1.313318e+05 -3.233423e+04 -5.000000e+03
-1.185821e+05 -3.175018e+04 -7.685965e+03
-1.190909e+05 -3.706920e+04 -1.037193e+04
-1.252113e+05 -3.470171e+04 -7.685965e+03
-1.123937e+05 -3.567461e+04 -1.120908e+04
-1.445903e+05 -3.823730e+04 -5.000000e+03
-1.452011e+05 -4.379452e+04 -7.787654e+03
-1.512196e+05 -4.118884e+04 -5.000000e+03
-1.458118e+05 -4.935173e+04 -1.057531e+04
-1.518304e+05 -4.674606e+04 -7.787654e+03
-1.379611e+05 -3.528577e+04 -5.000000e+03
-1.318406e+05 -3.765325e+04 -7.685965e+03
-1.323494e+05 -4.297228e+04 -1.037193e+04
-1.384699e+05 -4.060479e+04 -7.685965e+03
-1.390806e+05 -4.616200e+04 -1.047362e+04
-8.743628e+04 -4.467956e+04 -2.181934e+04
-9.331958e+04 -4.212890e+04 -1.909245e+04
-8.818223e+04 -5.018177e+04 -2.454623e+04
-9.406554e+04 -4.763110e+04 -2.181934e+04
-8.699544e+04 -3.780359e+04 -1.829623e+04
-9.287875e+04 -3.525292e+04 -1.556934e+04
-9.906718e+04 -3.132849e+04 -1.204623e+04
-9.950801e+04 -3.820446e+04 -1.556934e+04
-1.007628e+05 -4.902569e+04 -2.098219e+04
-1.067140e+05 -4.491807e+04 -1.741816e+04
-1.000168e+05 -4.352349e+04 -1.825531e+04
-1.062052e+05 -3.959905e+04 -1.473219e+04
-1.476094e+05 -6.728713e+04 -1.961296e+04
-1.415561e+05 -7.115655e+04 -2.307531e+04
-1.470333e+05 -6.046616e+04 -1.615061e+04
-1.409801e+05 -6.433559e+04 -1.961296e+04
-1.536279e+05 -6.468145e+04 -1.682531e+04
-1.530518e+05 -5.786049e+04 -1.336296e+04
-1.464226e+05 -5.490895e+04 -1.336296e+04
-1.524411e+05 -5.230327e+04 -1.057531e+04
-1.342489e+05 -6.114586e+04 -1.951127e+04
-1.403021e+05 -5.727643e+04 -1.604893e+04
-1.335709e+05 -5.408671e+04 -1.594724e+04
-1.396914e+05 -5.171922e+04 -1.326127e+04
-1.148352e+05 -5.887402e+04 -2.287193e+04
-1.141572e+05 -5.181486e+04 -1.930790e+04
-1.207864e+05 -5.476640e+04 -1.930790e+04
-1.201084e+05 -4.770725e+04 -1.574386e+04
-1.275177e+05 -5.795613e+04 -1.940958e+04
-1.268397e+05 -5.089698e+04 -1.584555e+04
-1.074600e+05 -5.042028e+04 -2.014504e+04
-1.134112e+05 -4.631266e+04 -1.658101e+04
-1.195997e+05 -4.238822e+04 -1.305790e+04
-1.257201e+05 -4.002074e+04 -1.037193e+04
-1.262289e+05 -4.533976e+04 -1.305790e+04
-1.129024e+05 -4.099364e+04 -1.389504e+04
-1.329601e+05 -4.852949e+04 -1.315958e+04
CELLS 192 768
3  1 0 2
3  3 1 4
3  4 2 5
3  2 4 1
3  7 6 8
3  6 0 1
3  8 1 3
3  8 6 1
3  14 15 16
3  15 9 10
3  16 10 11
3  16 15 10
3  12 13 17
3  9 12 10
3  10 17 11
3  17 10 12
3  19 18 20
3  18 7 21
3  20 21 22
3  20 18 21
3  24 23 25
3  22 24 20
3  20 25 19
3  24 25 20
3  26 27 28
3  13 26 29
3  29 28 30
3  28 29 26
3  28 27 31
3  30 28 33
3  33 31 32
3  28 31 33
3  34 5 35
3  36 34 37
3  37 35 38
3  35 37 34
3  40 39 41
3  38 40 42
3  42 41 43
3  41 42 40
3  37 38 42
3  36 37 44
3  44 42 43
3  37 42 44
3  45 46 47
3  46 14 48
3  47 48 49
3  47 46 48
3  50 45 51
3  39 50 52
3  52 51 53
3  51 52 50
3  51 45 47
3  53 51 54
3  54 47 49
3  47 54 51
3  57 32 55
3  58 57 59
3  59 55 56
3  57 55 59
3  62 56 60
3  63 62 64
3  64 60 61
3  62 60 64
3  59 56 62
3  58 59 65
3  65 62 63
3  62 65 59
3  67 66 68
3  69 67 70
3  70 68 23
3  67 68 70
3  72 61 71
3  73 72 74
3  74 71 66
3  72 71 74
3  74 66 67
3  73 74 75
3  75 67 69
3  67 75 74
3  49 78 79
3  78 11 76
3  79 76 77
3  79 78 76
3  80 30 81
3  11 80 76
3  76 81 77
3  81 76 80
3  81 30 82
3  77 81 83
3  83 82 58
3  81 82 83
3  84 49 79
3  85 84 86
3  86 79 77
3  79 86 84
3  83 58 87
3  77 83 86
3  86 87 85
3  87 86 83
3  88 3 89
3  90 88 91
3  91 89 36
3  89 91 88
3  22 92 93
3  92 3 88
3  93 88 90
3  93 92 88
3  94 69 95
3  90 94 93
3  93 95 22
3  94 95 93
3  91 36 96
3  90 91 97
3  97 96 98
3  91 96 97
3  99 69 94
3  98 99 97
3  97 94 90
3  94 97 99
3  100 53 101
3  43 100 102
3  102 101 103
3  101 102 100
3  104 43 102
3  98 104 105
3  105 102 103
3  104 102 105
3  101 53 106
3  103 101 107
3  107 106 85
3  106 107 101
3  108 63 109
3  103 108 110
3  110 109 73
3  108 109 110
3  111 63 108
3  85 111 107
3  107 108 103
3  108 107 111
3  110 73 112
3  103 110 105
3  105 112 98
3  112 105 110
3  34 36 89
3  5 34 4
3  4 89 3
3  89 4 34
3  21 7 8
3  22 21 92
3  92 8 3
3  8 92 21
3  44 43 104
3  36 44 96
3  96 104 98
3  104 96 44
3  70 23 24
3  69 70 95
3  95 24 22
3  24 95 70
3  48 14 16
3  49 48 78
3  78 16 11
3  16 78 48
3  30 80 29
3  80 11 17
3  29 17 13
3  29 80 17
3  49 84 54
3  84 85 106
3  54 106 53
3  54 84 106
3  33 32 57
3  30 33 82
3  82 57 58
3  57 82 33
3  99 98 112
3  69 99 75
3  75 112 73
3  112 75 99
3  63 111 65
3  111 85 87
3  65 87 58
3  111 87 65
3  100 43 41
3  53 100 52
3  52 41 39
3  41 52 100
3  64 61 72
3  63 64 109
3  109 72 73
3  72 109 64
CELL_TYPES 192
5
5
5
5
5
5
5
5
5
5
5
5
5
5
5
5
5
5
5
5
5
5
5
5
5
5
5
5
5
5
5
5
5
5
5
5
5
5
5
5
5
5
5
5
5
5
5
5
5
5
5
5
5
5
5
5
5
5
5
5
5
5
5
5
5
5
5
5
5
5
5
5
5
5
5
5
5
5
5
5
5
5
5
5
5
5
5
5
5
5
5
5
5
5
5
5
5
5
5
5
5
5
5
5
5
5
5
5
5
5
5
5
5
5
5
5
5
5
5
5
5
5
5
5
5
5
5
5
5
5
5
5
5
5
5
5
5
5
5
5
5
5
5
5
5
5
5
5
5
5
5
5
5
5
5
5
5
5
5
5
5
5
5
5
5
5
5
5
5
5
5
5
5
5
5
5
5
5
5
5
5
5
5
5
5
5
5
5
5
5
5
5
POINT_DATA 113
VECTORS slip double
0.000000e+00 0.000000e+00 0.000000e+00
0.000000e+00 0.000000e+00 0.000000e+00
0.000000e+00 0.000000e+00 0.000000e+00
0.000000e+00 0.000000e+00 0.000000e+00
0.000000e+00 0.000000e+00 0.000000e+00
0.000000e+00 0.000000e+00 0.000000e+00
0.000000e+00 0.000000e+00 0.000000e+00
0.000000e+00 0.000000e+00 0.000000e+00
0.000000e+00 0.000000e+00 0.000000e+00
0.000000e+00 0.000000e+00 0.000000e+00
0.000000e+00 0.000000e+00 0.000000e+00
0.000000e+00 0.000000e+00 0.000000e+00
0.000000e+00 0.000000e+00 0.000000e+00
0.000000e+00 0.000000e+00 0.000000e+00
0.000000e+00 0.000000e+00 0.000000e+00
0.000000e+00 0.000000e+00 0.000000e+00
0.000000e+00 0.000000e+00 0.000000e+00
0.000000e+00 0.000000e+00 0.000000e+00
0.000000e+00 0.000000e+00 0.000000e+00
0.000000e+00 0.000000e+00 0.000000e+00
-1.282726e+00 -2.306678e+00 2.168404e-16
-2.353778e-01 -4.040483e-01 -1.626303e-16
-1.372643e+00 -2.354298e+00 -2.168404e-16
0.000000e+00 0.000000e+00 0.000000e+00
-2.317833e+00 -3.228318e+00 0.000000e+00
0.000000e+00 0.000000e+00 0.000000e+00
0.000000e+00 0.000000e+00 0.000000e+00
0.000000e+00 0.000000e+00 0.000000e+00
-1.796657e+00 -2.583253e+00 0.000000e+00
0.000000e+00 0.000000e+00 0.000000e+00
-9.800975e-01 -1.617869e+00 1.084202e-16
0.000000e+00 0.000000e+00 0.000000e+00
0.000000e+00 0.000000e+00 0.000000e+00
-2.687897e+00 -3.726435e+00 2.168404e-16
0.000000e+00 0.000000e+00 0.000000e+00
0.000000e+00 0.000000e+00 0.000000e+00
0.000000e+00 0.000000e+00 0.000000e+00
0.000000e+00 0.000000e+00 0.000000e+00
0.000000e+00 0.000000e+00 0.000000e+00
0.000000e+00 0.000000e+00 0.000000e+00
0.000000e+00 0.000000e+00 0.000000e+00
0.000000e+00 0.000000e+00 0.000000e+00
0.000000e+00 0.000000e+00 0.000000e+00
0.000000e+00 0.000000e+00 0.000000e+00
0.000000e+00 0.000000e+00 0.000000e+00
0.000000e+00 0.000000e+00 0.000000e+00
0.000000e+00 0.000000e+00 0.000000e+00
0.000000e+00 0.000000e+00 0.000000e+00
0.000000e+00 0.000000e+00 0.000000e+00
0.000000e+00 0.000000e+00 0.000000e+00
0.000000e+00 0.000000e+00 0.000000e+00
0.000000e+00 0.000000e+00 0.000000e+00
0.000000e+00 0.000000e+00 0.000000e+00
0.000000e+00 0.000000e+00 0.000000e+00
0.000000e+00 0.000000e+00 0.000000e+00
0.000000e+00 0.000000e+00 0.000000e+00
0.000000e+00 0.000000e+00 0.000000e+00
-2.994386e+00 -4.040385e+00 -2.168404e-16
-1.864564e+00 -2.613584e+00 -4.336809e-16
-3.170694e+00 -4.208308e+00 -4.336809e-16
0.000000e+00 0.000000e+00 0.000000e+00
0.000000e+00 0.000000e+00 0.000000e+00
-3.053432e+00 -3.952010e+00 0.000000e+00
-2.513669e+00 -3.526307e+00 -4.336809e-16
-2.813457e+00 -3.799015e+00 4.336809e-16
-2.233630e+00 -3.169186e+00 -2.168404e-16
0.000000e+00 0.000000e+00 0.000000e+00
-2.822970e+00 -3.714987e+00 0.000000e+00
0.000000e+00 0.000000e+00 0.000000e+00
-2.259261e+00 -3.271736e+00 0.000000e+00
-2.630178e+00 -3.554666e+00 0.000000e+00
0.000000e+00 0.000000e+00 0.000000e+00
-2.901796e+00 -4.053730e+00 -4.336809e-16
-2.428146e+00 -3.545824e+00 4.336809e-16
-2.818900e+00 -3.908008e+00 0.000000e+00
-2.448161e+00 -3.439404e+00 0.000000e+00
0.000000e+00 0.000000e+00 0.000000e+00
0.000000e+00 0.000000e+00 0.000000e+00
0.000000e+00 0.000000e+00 0.000000e+00
0.000000e+00 0.000000e+00 0.000000e+00
0.000000e+00 0.000000e+00 0.000000e+00
0.000000e+00 0.000000e+00 0.000000e+00
-1.535394e+00 -2.272330e+00 0.000000e+00
-1.333398e-01 -2.158886e-01 1.761829e-16
0.000000e+00 0.000000e+00 0.000000e+00
0.000000e+00 0.000000e+00 0.000000e+00
0.000000e+00 0.000000e+00 0.000000e+00
-5.294997e-01 -8.024240e-01 -1.084202e-16
0.000000e+00 0.000000e+00 0.000000e+00
0.000000e+00 0.000000e+00 0.000000e+00
0.000000e+00 0.000000e+00 0.000000e+00
0.000000e+00 0.000000e+00 0.000000e+00
0.000000e+00 0.000000e+00 0.000000e+00
-5.859409e-01 -1.017435e+00 -5.421011e-17
-8.643668e-01 -1.461914e+00 -3.252607e-16
-1.951821e+00 -2.972044e+00 0.000000e+00
0.000000e+00 0.000000e+00 0.000000e+00
0.000000e+00 0.000000e+00 0.000000e+00
0.000000e+00 0.000000e+00 0.000000e+00
-9.484667e-01 -1.618010e+00 3.252607e-16
0.000000e+00 0.000000e+00 0.000000e+00
0.000000e+00 0.000000e+00 0.000000e+00
0.000000e+00 0.000000e+00 0.000000e+00
0.000000e+00 0.000000e+00 0.000000e+00
0.000000e+00 0.000000e+00 0.000000e+00
0.000000e+00 0.000000e+00 0.000000e+00
0.000000e+00 0.000000e+00 0.000000e+00
0.000000e+00 0.000000e+00 0.000000e+00
-1.160260e+00 -1.770190e+00 -1.084202e-16
-2.518639e+00 -3.489445e+00 0.000000e+00
-1.120807e+00 -1.785720e+00 -1.084202e-16
-8.852547e-01 -1.334091e+00 0.000000e+00
-1.069029e+00 -1.682417e+00 2.168404e-16
VECTORS traction double
0.000000e+00 0.000000e+00 0.000000e+00
-3.557689e+07 -5.438150e+07 -6.726362e+08
0.000000e+00 0.000000e+00 0.000000e+00
-3.544004e+07 -5.494762e+07 -5.791177e+08
-3.557653e+07 -5.460439e+07 -6.851377e+08
0.000000e+00 0.000000e+00 0.000000e+00
0.000000e+00 0.000000e+00 0.000000e+00
0.000000e+00 0.000000e+00 0.000000e+00
-3.505639e+07 -5.539714e+07 -5.158123e+08
0.000000e+00 0.000000e+00 0.000000e+00
-3.877744e+07 -5.423021e+07 -6.877004e+08
-3.893886e+07 -5.457027e+07 -6.144738e+08
0.000000e+00 0.000000e+00 0.000000e+00
0.000000e+00 0.000000e+00 0.000000e+00
0.000000e+00 0.000000e+00 0.000000e+00
0.000000e+00 0.000000e+00 0.000000e+00
-3.858781e+07 -5.410769e+07 -7.065340e+08
-3.926107e+07 -5.527719e+07 -5.376621e+08
0.000000e+00 0.000000e+00 0.000000e+00
0.000000e+00 0.000000e+00 0.000000e+00
-2.179560e+07 -3.236242e+07 -1.950881e+08
-3.736566e+07 -5.840485e+07 -3.466742e+08
-2.960674e+07 -4.560156e+07 -2.718484e+08
0.000000e+00 0.000000e+00 0.000000e+00
-1.934580e+07 -2.945632e+07 -1.762055e+08
0.000000e+00 0.000000e+00 0.000000e+00
0.000000e+00 0.000000e+00 0.000000e+00
0.000000e+00 0.000000e+00 0.000000e+00
-2.314608e+07 -3.456114e+07 -2.079792e+08
-4.105575e+07 -5.992158e+07 -3.687163e+08
-3.460290e+07 -5.016747e+07 -3.047186e+08
0.000000e+00 0.000000e+00 0.000000e+00
0.000000e+00 0.000000e+00 0.000000e+00
-2.326244e+07 -3.266701e+07 -2.005165e+08
-3.541387e+07 -5.440376e+07 -6.856307e+08
0.000000e+00 0.000000e+00 0.000000e+00
-3.552566e+07 -5.524450e+07 -5.918973e+08
-3.560478e+07 -5.457050e+07 -6.855541e+08
0.000000e+00 0.000000e+00 0.000000e+00
0.000000e+00 0.000000e+00 0.000000e+00
0.000000e+00 0.000000e+00 0.000000e+00
-3.635128e+07 -5.422636e+07 -6.842651e+08
-3.604815e+07 -5.431225e+07 -6.844304e+08
-3.616980e+07 -5.481094e+07 -5.886429e+08
-3.594902e+07 -5.522862e+07 -5.903199e+08
0.000000e+00 0.000000e+00 0.000000e+00
0.000000e+00 0.000000e+00 0.000000e+00
-3.806739e+07 -5.417541e+07 -7.031664e+08
-3.843035e+07 -5.416702e+07 -7.068652e+08
-3.848166e+07 -5.454389e+07 -6.295426e+08
0.000000e+00 0.000000e+00 0.000000e+00
-3.719124e+07 -5.408185e+07 -6.901254e+08
-3.669211e+07 -5.407216e+07 -6.848333e+08
-3.697726e+07 -5.494567e+07 -5.939198e+08
-3.807995e+07 -5.494998e+07 -6.114896e+08
0.000000e+00 0.000000e+00 0.000000e+00
0.000000e+00 0.000000e+00 0.000000e+00
-2.323010e+07 -3.266771e+07 -2.004256e+08
-3.295959e+07 -4.721791e+07 -2.879178e+08
-2.239362e+07 -3.207159e+07 -1.955799e+08
0.000000e+00 0.000000e+00 0.000000e+00
0.000000e+00 0.000000e+00 0.000000e+00
-1.965483e+07 -2.946143e+07 -1.770796e+08
-2.808174e+07 -4.185120e+07 -2.519974e+08
-2.033225e+07 -2.857754e+07 -1.753622e+08
-3.109579e+07 -4.462143e+07 -2.719384e+08
0.000000e+00 0.000000e+00 0.000000e+00
-1.956085e+07 -2.964422e+07 -1.775815e+08
0.000000e+00 0.000000e+00 0.000000e+00
-2.741324e+07 -4.245046e+07 -2.526622e+08
-1.983037e+07 -2.941220e+07 -1.773641e+08
0.000000e+00 0.000000e+00 0.000000e+00
-2.027146e+07 -2.918269e+07 -1.776627e+08
-2.763593e+07 -4.143619e+07 -2.490332e+08
-1.999286e+07 -2.917627e+07 -1.768452e+08
-2.704574e+07 -4.196256e+07 -2.496161e+08
-3.891057e+07 -5.520481e+07 -5.411627e+08
-3.944740e+07 -5.678443e+07 -4.774342e+08
-3.870413e+07 -5.449582e+07 -6.332339e+08
-3.891711e+07 -5.518918e+07 -5.558969e+08
-3.716044e+07 -5.506858e+07 -4.638169e+08
-4.404232e+07 -6.468596e+07 -4.023859e+08
-3.396760e+07 -4.805297e+07 -2.942315e+08
-4.262104e+07 -6.422671e+07 -3.854097e+08
-3.853220e+07 -5.548482e+07 -5.375008e+08
-4.052502e+07 -6.196655e+07 -4.420980e+08
-3.965100e+07 -5.838912e+07 -4.641782e+08
-4.045139e+07 -6.174835e+07 -3.690926e+08
-3.431562e+07 -5.541987e+07 -4.861040e+08
-3.544833e+07 -5.495152e+07 -5.919301e+08
-3.986376e+07 -6.473859e+07 -4.109919e+08
-3.590955e+07 -5.652434e+07 -4.979564e+08
-3.792982e+07 -6.023915e+07 -4.228598e+08
-3.695883e+07 -5.897527e+07 -3.479956e+08
-3.496265e+07 -5.565154e+07 -3.286138e+08
-2.750360e+07 -4.227226e+07 -2.521602e+08
-3.601360e+07 -5.609083e+07 -4.965966e+08
-3.990250e+07 -6.578672e+07 -4.098997e+08
-4.000288e+07 -6.590118e+07 -4.067354e+08
-3.577078e+07 -5.491386e+07 -3.276843e+08
-3.674500e+07 -5.502917e+07 -5.885933e+08
-3.711277e+07 -5.597624e+07 -4.971751e+08
-3.669147e+07 -5.604630e+07 -4.923272e+08
-4.178869e+07 -6.787009e+07 -4.047715e+08
-3.616638e+07 -5.620919e+07 -4.942656e+08
-4.098119e+07 -6.685004e+07 -4.045700e+08
-3.812260e+07 -5.597394e+07 -5.150764e+08
-4.158332e+07 -6.542026e+07 -4.203037e+08
-3.609499e+07 -5.440170e+07 -3.264351e+08
-2.685118e+07 -4.177346e+07 -2.482946e+08
-3.524292e+07 -5.415751e+07 -3.230750e+08
-3.832097e+07 -5.746732e+07 -3.453617e+08
-3.496029e+07 -5.474806e+07 -3.247912e+08
