# vtk DataFile Version 2.0
Simplicial Mesh Example
ASCII
DATASET UNSTRUCTURED_GRID
POINTS 9235 double
3.320296e+05 -1.479713e+05 -5.000000e+04
3.230490e+05 -1.698867e+05 -2.450301e+04
3.473967e+05 -1.610091e+05 -2.499295e+04
3.230191e+05 -1.453594e+05 -2.376374e+04
3.000000e+05 -1.659466e+05 0.000000e+00
3.323841e+05 -1.500853e+05 0.000000e+00
3.000000e+05 -1.298234e+05 -5.000000e+04
3.211390e+05 -1.219510e+05 -2.456343e+04
3.000000e+05 -1.488492e+05 -2.774542e+04
3.000000e+05 -1.638587e+05 -5.000000e+04
-3.410447e+05 -3.313729e+05 -5.000000e+04
-3.562722e+05 -3.568159e+05 -2.596779e+04
-3.399470e+05 -3.173800e+05 -2.518749e+04
-3.709613e+05 -3.293268e+05 -2.460153e+04
8.320003e+04 -3.000000e+05 -2.235380e+04
1.000000e+05 -3.000000e+05 0.000000e+00
8.376766e+04 -3.323560e+05 0.000000e+00
1.022059e+05 -3.232166e+05 -2.436054e+04
9.218191e+04 -3.479439e+05 -2.506288e+04
7.450652e+04 -3.246631e+05 -2.586070e+04
8.376391e+04 -3.320935e+05 -5.000000e+04
1.000000e+05 -3.000000e+05 -5.000000e+04
6.666667e+04 -3.000000e+05 -5.000000e+04
4.909161e+04 -3.211949e+05 -2.159753e+04
-3.000000e+05 -2.284991e+05 -5.000000e+04
-3.319474e+05 -2.124896e+05 -5.000000e+04
-3.218152e+05 -2.373449e+05 -2.716838e+04
-3.186433e+05 -2.130922e+05 -3.089857e+04
3.680760e+05 -6.909438e+04 0.000000e+00
3.760404e+05 -8.535114e+04 -2.432411e+04
3.481610e+05 -6.095230e+04 -2.499963e+04
3.758419e+05 -5.047205e+04 -2.434620e+04
-3.000000e+05 -2.326501e+05 0.000000e+00
-3.000000e+05 -2.125115e+05 -2.265069e+04
-3.000000e+05 -1.989752e+05 0.000000e+00
-3.227151e+05 -1.919352e+05 -2.817559e+04
-3.324295e+05 -2.170264e+05 0.000000e+00
-2.490803e+05 -3.000000e+05 -2.221961e+04
-2.515393e+05 -3.324613e+05 0.000000e+00
-2.666667e+05 -3.000000e+05 0.000000e+00
-2.738346e+05 -3.252416e+05 -2.491374e+04
3.676956e+05 -6.866168e+04 -5.000000e+04
4.000000e+05 -8.695652e+04 -5.000000e+04
4.000000e+05 -5.217391e+04 -5.000000e+04
4.000000e+05 -6.957979e+04 -2.232138e+04
-2.333333e+05 -3.000000e+05 -5.000000e+04
-2.666667e+05 -3.000000e+05 -5.000000e+04
-2.512538e+05 -3.321783e+05 -5.000000e+04
-2.508504e+05 -3.238766e+05 -2.894778e+04
-2.288410e+05 -3.237531e+05 -2.554757e+04
-2.332968e+05 -3.501801e+05 -2.524712e+04
-1.499969e+05 -3.000000e+05 -2.764283e+04
-1.666667e+05 -3.000000e+05 0.000000e+00
-1.716166e+05 -3.233333e+05 -2.542063e+04
-1.478789e+05 -3.226382e+05 -2.533861e+04
-1.507909e+05 -3.323848e+05 0.000000e+00
-1.630826e+05 -3.498393e+05 -2.503121e+04
-1.507405e+05 -3.321164e+05 -5.000000e+04
-1.194653e+05 -3.220088e+05 -2.222167e+04
-1.333333e+05 -3.000000e+05 -5.000000e+04
-1.666667e+05 -3.000000e+05 -5.000000e+04
-1.043477e+05 4.000000e+05 -2.232281e+04
-1.038755e+05 3.680862e+05 0.000000e+00
-1.217391e+05 4.000000e+05 0.000000e+00
-1.224620e+05 3.788441e+05 -2.436654e+04
-1.217391e+05 4.000000e+05 -5.000000e+04
-9.211340e+04 3.779330e+05 -2.656844e+04
-6.923876e+04 -3.678233e+05 -5.000000e+04
-8.695652e+04 -4.000000e+05 -5.000000e+04
-5.217391e+04 -4.000000e+05 -5.000000e+04
-6.956714e+04 -4.000000e+05 -2.232106e+04
-1.249943e+05 3.519836e+05 -2.486759e+04
-1.038072e+05 3.678091e+05 -5.000000e+04
-1.739130e+04 -4.000000e+05 -5.000000e+04
-3.460350e+04 -3.678269e+05 -5.000000e+04
-3.478387e+04 -4.000000e+05 -2.232106e+04
-1.651509e+04 -3.754742e+05 -2.442335e+04
-8.376345e+04 3.320934e+05 -5.000000e+04
-1.000000e+05 3.000000e+05 -5.000000e+04
-8.343627e+04 3.000000e+05 -2.764981e+04
-1.026187e+05 3.239050e+05 -2.445309e+04
-6.666667e+04 3.000000e+05 -5.000000e+04
-5.147032e+04 3.217565e+05 -2.303829e+04
4.000000e+05 3.304348e+05 -5.000000e+04
4.000000e+05 3.130499e+05 -2.232112e+04
4.000000e+05 3.478935e+05 -2.235349e+04
3.674886e+05 3.295924e+05 -2.467361e+04
-6.033593e+04 3.477011e+05 -2.439908e+04
-7.701272e+04 3.234532e+05 -1.862781e+04
-8.379954e+04 3.323534e+05 0.000000e+00
-9.028036e+04 3.505284e+05 -2.483995e+04
3.000000e+05 -8.185378e+04 -2.769067e+04
3.000000e+05 -6.540655e+04 0.000000e+00
3.219834e+05 -9.262369e+04 -2.356665e+04
3.212381e+05 -6.353317e+04 -2.568389e+04
3.320030e+05 -7.972620e+04 -5.000000e+04
3.000000e+05 -4.823862e+04 -2.768751e+04
3.000000e+05 -6.175270e+04 -5.000000e+04
3.319980e+05 -4.560520e+04 -5.000000e+04
1.000000e+05 3.000000e+05 0.000000e+00
1.285319e+05 3.220153e+05 -2.330358e+04
1.166485e+05 3.000000e+05 -2.764255e+04
9.924408e+04 3.212454e+05 -2.557582e+04
1.172876e+05 3.321041e+05 -5.000000e+04
1.000000e+05 3.000000e+05 -5.000000e+04
1.172617e+05 3.323725e+05 0.000000e+00
1.739130e+04 -4.000000e+05 -5.000000e+04
3.478141e+04 -4.000000e+05 -2.232106e+04
3.460470e+04 -3.678270e+05 -5.000000e+04
1.646691e+04 -3.753828e+05 -2.432691e+04
9.656745e+04 3.481700e+05 -2.494853e+04
3.680819e+05 1.387484e+05 0.000000e+00
3.789347e+05 1.274418e+05 -2.657151e+04
3.531101e+05 1.597755e+05 -2.518599e+04
3.792098e+05 1.574583e+05 -2.441774e+04
4.000000e+05 1.565217e+05 0.000000e+00
4.000000e+05 1.391303e+05 -2.231930e+04
6.857177e+00 3.678309e+05 -5.000000e+04
1.673721e+04 3.320840e+05 -5.000000e+04
3.460423e+04 3.678269e+05 -5.000000e+04
2.880282e+04 3.508021e+05 -2.489257e+04
-3.461370e+04 -3.681008e+05 0.000000e+00
-1.739130e+04 -4.000000e+05 0.000000e+00
-1.676283e+04 3.320851e+05 -5.000000e+04
1.537478e+03 3.361402e+05 -2.528450e+04
3.679848e+05 1.390962e+05 -5.000000e+04
-4.999978e+04 -3.000000e+05 -2.235748e+04
-1.678469e+04 -3.000000e+05 -2.764887e+04
-1.676668e+04 -3.323444e+05 0.000000e+00
-5.499684e+04 -3.228669e+05 -2.776930e+04
4.000000e+05 1.565217e+05 -5.000000e+04
3.676239e+05 -2.421373e+05 -5.000000e+04
4.000000e+05 -2.434785e+05 -2.767896e+04
3.747803e+05 -2.281317e+05 -2.552755e+04
3.782485e+05 -2.607848e+05 -2.580555e+04
-3.128530e+05 -3.661813e+05 -5.000000e+04
-2.847026e+05 -3.321560e+05 -5.000000e+04
-3.161470e+05 -3.277621e+05 -5.000000e+04
-3.120399e+05 -3.401367e+05 -2.465985e+04
3.512666e+05 -2.655302e+05 -2.501422e+04
3.679951e+05 -2.423193e+05 0.000000e+00
4.000000e+05 -2.608696e+05 0.000000e+00
-1.455192e-10 3.000000e+05 -5.000000e+04
-1.665884e+04 3.000000e+05 -2.764283e+04
1.678621e+04 3.000000e+05 -2.764891e+04
3.000000e+05 -2.490234e+05 -2.248769e+04
3.324577e+05 -2.511100e+05 0.000000e+00
3.238293e+05 -2.640014e+05 -2.441041e+04
3.212088e+05 -2.325011e+05 -2.423874e+04
3.320637e+05 -2.503757e+05 -5.000000e+04
3.463683e+05 -2.303855e+05 -2.500317e+04
-3.698054e+05 -3.472763e+05 0.000000e+00
-3.663396e+05 -3.129808e+05 0.000000e+00
-3.315797e+05 -3.410949e+05 0.000000e+00
3.000000e+05 -2.319293e+05 -5.000000e+04
1.730839e+05 3.678997e+05 -5.000000e+04
1.571942e+05 3.749461e+05 -2.554585e+04
1.947972e+05 3.532715e+05 -2.489915e+04
1.912984e+05 3.786912e+05 -2.581857e+04
1.913043e+05 4.000000e+05 -5.000000e+04
1.739026e+05 4.000000e+05 -2.767885e+04
3.704421e+05 3.503181e+05 -5.000000e+04
-3.674293e+05 -2.066073e+05 -5.000000e+04
-3.494471e+05 -2.292202e+05 -2.526698e+04
-3.497009e+05 -1.977915e+05 -2.539897e+04
1.731007e+05 3.680556e+05 0.000000e+00
1.913043e+05 4.000000e+05 0.000000e+00
4.000000e+05 2.956522e+05 0.000000e+00
4.000000e+05 2.782599e+05 -2.232106e+04
3.700232e+05 2.952130e+05 -2.459328e+04
-2.177434e+05 -3.321524e+05 -5.000000e+04
-2.166738e+05 -3.000000e+05 -2.767207e+04
-2.002275e+05 -3.215730e+05 -2.585451e+04
-1.985707e+05 -3.482959e+05 -2.510962e+04
-2.179099e+05 -3.324288e+05 0.000000e+00
-2.000000e+05 -3.000000e+05 0.000000e+00
-4.000000e+05 -1.739130e+04 -5.000000e+04
-4.000000e+05 1.362271e+00 -2.232106e+04
-4.000000e+05 -3.478139e+04 -2.232106e+04
-3.764375e+05 -1.615686e+04 -2.441389e+04
-1.172644e+05 3.321057e+05 -5.000000e+04
-1.165333e+05 3.000000e+05 -2.235380e+04
-1.172626e+05 3.323723e+05 0.000000e+00
-1.351151e+05 3.242796e+05 -2.432698e+04
-1.000000e+05 3.000000e+05 0.000000e+00
3.000000e+05 -1.154172e+05 -2.769106e+04
3.000000e+05 -9.891990e+04 0.000000e+00
3.323674e+05 -1.164140e+05 0.000000e+00
3.494970e+05 -9.661460e+04 -2.478315e+04
3.320115e+05 -1.138445e+05 -5.000000e+04
3.000000e+05 -9.578803e+04 -5.000000e+04
-3.683842e+05 -3.117444e+05 -5.000000e+04
-3.704229e+05 -3.502942e+05 -5.000000e+04
-3.000000e+05 -1.676695e+04 -5.000000e+04
-3.000000e+05 -3.162526e+04 0.000000e+00
-3.000000e+05 1.537267e+03 0.000000e+00
-3.215156e+05 -1.436666e+04 -2.547447e+04
-2.627419e+05 -3.499829e+05 -2.513924e+04
-3.324526e+05 -2.845988e+05 0.000000e+00
-3.280582e+05 -3.160567e+05 0.000000e+00
-2.333333e+05 -3.000000e+05 0.000000e+00
-1.731007e+05 -3.680556e+05 0.000000e+00
-1.545447e+05 -3.761882e+05 -2.496605e+04
-1.738957e+05 -4.000000e+05 -2.758994e+04
-1.892592e+05 -3.758330e+05 -2.503546e+04
-2.077253e+05 -3.680332e+05 0.000000e+00
-2.238681e+05 -3.761511e+05 -2.500739e+04
-1.913043e+05 -4.000000e+05 -5.000000e+04
-2.086560e+05 -4.000000e+05 -2.240978e+04
-1.730589e+05 -3.677722e+05 -5.000000e+04
6.957979e+04 4.000000e+05 -2.232138e+04
5.217391e+04 4.000000e+05 0.000000e+00
3.478536e+04 4.000000e+05 -2.232108e+04
5.076709e+04 3.763881e+05 -2.432357e+04
5.217391e+04 4.000000e+05 -5.000000e+04
1.674987e+04 3.323474e+05 0.000000e+00
3.500461e+04 3.242904e+05 -2.486949e+04
3.461320e+04 3.681000e+05 0.000000e+00
4.999984e+04 3.000000e+05 -2.235747e+04
3.333333e+04 3.000000e+05 0.000000e+00
1.624297e+04 3.760050e+05 -2.438535e+04
-3.680268e+05 2.424010e+05 0.000000e+00
-3.501061e+05 2.289790e+05 -2.510660e+04
-3.680500e+05 2.077851e+05 0.000000e+00
-3.762767e+05 2.231686e+05 -2.569080e+04
6.044606e+04 3.500124e+05 -2.491520e+04
-1.731195e+05 3.680519e+05 0.000000e+00
-1.545405e+05 3.762789e+05 -2.429555e+04
-1.611352e+05 3.500581e+05 -2.482426e+04
-1.910310e+05 3.748826e+05 -2.441742e+04
-1.384382e+05 3.677954e+05 -5.000000e+04
-4.000000e+05 2.260870e+05 0.000000e+00
-4.000000e+05 2.086964e+05 -2.767894e+04
-1.565217e+05 4.000000e+05 -5.000000e+04
-1.391303e+05 4.000000e+05 -2.231930e+04
-1.739120e+05 4.000000e+05 -2.232105e+04
-2.883046e+05 -3.320639e+05 0.000000e+00
-3.323717e+05 -1.156481e+05 0.000000e+00
-3.489067e+05 -1.010526e+05 -2.439261e+04
-3.250615e+05 -9.110468e+04 -2.328549e+04
-3.294786e+05 -1.230635e+05 -2.464286e+04
[...]
POINT_DATA 9235
VECTORS displacement double
-3.568007e-02 7.097465e-03 -2.334176e-02
-4.008854e-02 9.369423e-03 -2.512309e-02
-2.795387e-02 7.817243e-03 -2.320161e-02
-4.140045e-02 7.730835e-03 -2.627047e-02
-5.447808e-02 1.136349e-02 -2.958496e-02
-3.822357e-02 8.426183e-03 -2.622182e-02
-5.370207e-02 7.164150e-03 -2.828429e-02
-4.354052e-02 5.736269e-03 -2.732649e-02
-5.280210e-02 9.135067e-03 -2.903634e-02
-5.133520e-02 9.867240e-03 -2.650904e-02
-4.807465e-03 3.045313e-02 -5.514316e-02
-4.241130e-03 1.879100e-02 -5.155894e-02
-6.790236e-03 3.226728e-02 -6.196163e-02
-2.924094e-03 2.922427e-02 -5.663632e-02
-9.092985e-02 2.063008e-02 -5.937993e-02
-9.418654e-02 2.263728e-02 -5.541816e-02
-9.250062e-02 1.776518e-02 -5.264762e-02
-9.009066e-02 1.787617e-02 -4.940496e-02
-8.931787e-02 1.327090e-02 -4.760266e-02
-8.977864e-02 1.770752e-02 -5.558165e-02
-9.139112e-02 2.057506e-02 -4.945943e-02
-9.339922e-02 2.612771e-02 -5.249356e-02
-9.374337e-02 2.864058e-02 -5.977047e-02
-8.746400e-02 1.656809e-02 -6.185197e-02
-4.076807e-03 5.671271e-02 -8.417652e-02
-1.391983e-03 5.535533e-02 -9.332643e-02
-1.931355e-02 3.619621e-02 -8.882691e-02
-2.571598e-02 3.158177e-02 -9.051669e-02
-1.973231e-02 -5.903776e-04 -2.509677e-02
-1.386974e-02 8.794797e-04 -2.318552e-02
-3.018515e-02 -1.623058e-03 -2.547890e-02
-1.420173e-02 -3.031952e-03 -2.358790e-02
-4.487997e-02 1.213087e-02 -8.536364e-02
-4.346616e-02 1.324181e-02 -8.503655e-02
-7.497662e-02 -1.422104e-02 -7.772423e-02
-3.528853e-02 2.348771e-02 -8.873230e-02
-3.591088e-02 2.468826e-02 -9.226858e-02
-2.839874e-02 2.110245e-02 -7.747394e-02
-2.332126e-02 1.930623e-02 -7.068543e-02
-2.551052e-02 2.291618e-02 -7.528749e-02
-1.836716e-02 2.484246e-02 -6.897194e-02
-1.844827e-02 -1.081236e-03 -2.213089e-02
0.000000e+00 6.635876e-04 -2.087873e-02
0.000000e+00 -3.026705e-03 -2.122006e-02
0.000000e+00 -9.314726e-04 -2.287531e-02
-2.205859e-02 4.368893e-02 -7.456351e-02
-1.407267e-02 4.413885e-02 -7.231756e-02
-1.876018e-02 2.942500e-02 -6.768308e-02
-2.324607e-02 2.257552e-02 -7.216942e-02
-2.919904e-02 1.947967e-02 -7.466648e-02
-2.603659e-02 1.542208e-02 -6.921875e-02
-5.022779e-02 3.254091e-03 -7.845159e-02
-4.889823e-02 -1.313135e-02 -7.865406e-02
-4.325824e-02 1.172012e-02 -7.878396e-02
-4.910260e-02 8.011470e-03 -7.965855e-02
-4.849821e-02 2.517857e-03 -7.766078e-02
-4.401688e-02 1.053410e-02 -7.521283e-02
-4.635338e-02 3.020603e-02 -7.510803e-02
-5.561297e-02 4.205653e-03 -7.966900e-02
-5.071766e-02 3.798851e-02 -7.683084e-02
-4.093027e-02 4.119378e-02 -7.609539e-02
-5.209359e-02 0.000000e+00 -4.853579e-02
-5.266614e-02 -1.549232e-02 -5.207911e-02
-4.817700e-02 0.000000e+00 -4.966756e-02
-4.796157e-02 -9.786712e-03 -5.000328e-02
-4.802345e-02 0.000000e+00 -4.545443e-02
-5.495927e-02 -1.022746e-02 -4.966708e-02
-6.840303e-02 1.481723e-02 -6.843717e-02
-6.353525e-02 0.000000e+00 -6.584487e-02
-7.244472e-02 0.000000e+00 -6.333241e-02
-6.762933e-02 0.000000e+00 -6.891458e-02
-4.774965e-02 -2.135283e-02 -5.421510e-02
-5.262339e-02 -1.793877e-02 -4.856440e-02
-7.935874e-02 0.000000e+00 -5.999629e-02
-7.640606e-02 1.342714e-02 -6.483920e-02
-7.549590e-02 0.000000e+00 -6.552476e-02
-7.927942e-02 6.280023e-03 -6.425140e-02
-5.780107e-02 -3.433639e-02 -5.575043e-02
-5.512284e-02 -4.934732e-02 -6.331973e-02
-5.780909e-02 -3.289838e-02 -6.678643e-02
-5.323313e-02 -2.910778e-02 -6.055161e-02
-6.313065e-02 -4.766519e-02 -6.321501e-02
-6.386566e-02 -2.928024e-02 -5.901363e-02
0.000000e+00 -8.825409e-03 -1.535360e-02
0.000000e+00 -1.116606e-02 -1.697867e-02
0.000000e+00 -6.937004e-03 -1.664648e-02
-1.172678e-02 -9.406889e-03 -1.684083e-02
-6.186082e-02 -2.177849e-02 -5.337561e-02
-5.872184e-02 -2.829387e-02 -6.017991e-02
-5.765281e-02 -2.747667e-02 -5.827615e-02
-5.565648e-02 -2.109001e-02 -5.431205e-02
-5.609009e-02 1.851966e-03 -3.200473e-02
-5.987492e-02 1.667689e-04 -3.389304e-02
-4.423932e-02 2.607755e-03 -2.822346e-02
-4.520869e-02 -1.001597e-03 -2.894729e-02
-3.827286e-02 6.803885e-04 -2.527687e-02
-5.681352e-02 -2.736748e-03 -3.275378e-02
-5.689059e-02 -8.829760e-04 -3.061669e-02
-3.887457e-02 -3.489391e-03 -2.574980e-02
-8.311553e-02 -3.379471e-02 -4.354002e-02
-7.667448e-02 -2.381274e-02 -3.402327e-02
-7.961835e-02 -3.010101e-02 -3.946815e-02
-7.853783e-02 -2.584227e-02 -3.857856e-02
-7.606988e-02 -2.195534e-02 -3.204853e-02
-8.114053e-02 -3.330585e-02 -4.022966e-02
-7.918413e-02 -2.364469e-02 -3.528362e-02
-8.495575e-02 0.000000e+00 -5.423874e-02
-8.658065e-02 0.000000e+00 -5.439592e-02
-8.740792e-02 1.229728e-02 -5.320304e-02
-8.460793e-02 6.780253e-03 -5.876918e-02
-7.702618e-02 -1.801509e-02 -3.492740e-02
-1.692309e-02 -2.086912e-02 -2.258933e-02
-1.085917e-02 -1.964454e-02 -2.112097e-02
-2.282663e-02 -2.113040e-02 -2.134974e-02
-1.021435e-02 -2.035148e-02 -2.045615e-02
0.000000e+00 -2.084065e-02 -2.157752e-02
0.000000e+00 -1.988702e-02 -2.080094e-02
-7.165344e-02 -1.493401e-02 -4.239061e-02
-7.529077e-02 -2.949556e-02 -4.600096e-02
-7.460631e-02 -1.415304e-02 -3.805707e-02
-7.509614e-02 -1.928695e-02 -4.370546e-02
-7.697179e-02 7.028205e-03 -6.810162e-02
-8.094654e-02 0.000000e+00 -6.379144e-02
-7.065695e-02 -3.180378e-02 -5.026104e-02
-7.240887e-02 -2.507550e-02 -4.952737e-02
-1.574248e-02 -1.976231e-02 -1.970128e-02
-6.743517e-02 2.950962e-04 -7.979092e-02
-7.548435e-02 1.109405e-02 -7.689588e-02
-7.778714e-02 8.107539e-03 -7.150787e-02
-6.915298e-02 1.030692e-02 -7.738358e-02
0.000000e+00 -1.966329e-02 -1.862386e-02
-1.492678e-02 8.699444e-03 -1.797265e-02
0.000000e+00 8.783642e-03 -1.878365e-02
-1.223570e-02 9.213888e-03 -1.964539e-02
-9.997758e-03 8.694585e-03 -1.870443e-02
-8.654009e-03 1.568447e-02 -5.190686e-02
-1.258256e-02 2.959107e-02 -6.271356e-02
-7.547842e-03 3.186210e-02 -5.861742e-02
-1.044268e-02 2.356088e-02 -5.993724e-02
-2.225541e-02 9.195812e-03 -1.935697e-02
-1.574627e-02 9.848456e-03 -2.078554e-02
0.000000e+00 9.157352e-03 -1.992849e-02
-7.633318e-02 -4.400383e-02 -5.639594e-02
-7.080015e-02 -3.437920e-02 -6.130266e-02
-7.596424e-02 -3.454207e-02 -5.645687e-02
-4.602962e-02 1.202651e-02 -2.354641e-02
-3.261463e-02 1.101741e-02 -2.208148e-02
-3.454711e-02 1.027773e-02 -2.087504e-02
-3.740932e-02 1.096070e-02 -2.250541e-02
-3.060847e-02 9.675284e-03 -1.937549e-02
-2.579956e-02 9.889670e-03 -2.075821e-02
-2.366896e-03 2.514677e-02 -5.384624e-02
-3.574297e-03 3.777515e-02 -6.220250e-02
-6.551171e-03 2.633291e-02 -5.834245e-02
-4.615797e-02 1.167820e-02 -2.268429e-02
-6.600284e-02 -8.544178e-03 -2.292607e-02
-6.978346e-02 -7.340219e-03 -2.575416e-02
-6.362255e-02 -1.162478e-02 -2.359320e-02
-6.333576e-02 -5.397653e-03 -2.283127e-02
-6.192688e-02 0.000000e+00 -2.091384e-02
-6.631057e-02 0.000000e+00 -2.370194e-02
-1.022179e-02 -6.532585e-03 -1.528408e-02
5.954545e-04 5.609272e-02 -9.760062e-02
-1.360169e-02 3.989205e-02 -9.245169e-02
-2.142517e-02 3.321822e-02 -1.000131e-01
-6.907625e-02 -9.429230e-03 -2.598404e-02
-6.483135e-02 0.000000e+00 -2.395038e-02
0.000000e+00 -1.345855e-02 -1.838708e-02
0.000000e+00 -1.472237e-02 -1.744306e-02
-1.132753e-02 -1.333848e-02 -1.727541e-02
-2.580526e-02 3.061801e-02 -7.145748e-02
-3.489702e-02 1.758141e-02 -7.974692e-02
-3.637337e-02 1.532841e-02 -7.789173e-02
-3.483862e-02 1.339598e-02 -7.325318e-02
-3.218721e-02 1.380091e-02 -7.455988e-02
-4.420326e-02 -2.879960e-03 -7.889274e-02
0.000000e+00 -1.109677e-02 -1.216687e-01
0.000000e+00 -1.447512e-02 -1.277747e-01
0.000000e+00 -6.193446e-03 -1.286162e-01
-3.524931e-02 -1.018167e-02 -1.164236e-01
-4.980225e-02 -3.724221e-02 -5.589972e-02
-5.109812e-02 -3.155131e-02 -6.769472e-02
-4.990551e-02 -2.784741e-02 -5.892567e-02
-4.604289e-02 -2.973320e-02 -6.057562e-02
-5.421000e-02 -2.794042e-02 -6.645744e-02
-5.464323e-02 5.925235e-03 -3.077911e-02
-5.864884e-02 4.733873e-03 -3.275495e-02
-3.985276e-02 5.443672e-03 -2.741762e-02
-2.881514e-02 2.384351e-03 -2.479735e-02
-3.733493e-02 4.279762e-03 -2.442535e-02
-5.538999e-02 3.661925e-03 -2.971059e-02
-2.009587e-03 3.739654e-02 -5.870196e-02
-2.223611e-03 2.221461e-02 -4.923175e-02
-1.044750e-02 -1.338925e-02 1.065948e-01
-4.175737e-01 -1.473142e-02 1.221837e-01
-4.094014e-01 3.151351e-02 1.152039e-01
-1.481835e-01 -5.574237e-03 -5.362654e-03
-1.951440e-02 1.729116e-02 -6.520784e-02
-1.160843e-02 3.869955e-02 -7.415956e-02
-8.313068e-03 3.371035e-02 -6.475491e-02
-3.579622e-02 1.036747e-02 -7.794061e-02
-4.044252e-02 7.348719e-03 -7.203509e-02
-4.548211e-02 6.101092e-03 -7.134480e-02
-3.992226e-02 0.000000e+00 -6.858344e-02
-3.615687e-02 7.163903e-03 -6.917578e-02
-3.085756e-02 9.481825e-03 -6.932406e-02
-2.731571e-02 8.046815e-03 -6.569953e-02
-3.379785e-02 0.000000e+00 -6.370391e-02
-3.090355e-02 0.000000e+00 -6.590949e-02
-3.895012e-02 1.586909e-02 -6.817315e-02
-7.608422e-02 0.000000e+00 -3.467827e-02
-7.774644e-02 0.000000e+00 -3.782808e-02
-7.477543e-02 0.000000e+00 -3.866219e-02
-7.590995e-02 -9.383651e-03 -3.773324e-02
-7.493250e-02 0.000000e+00 -3.417431e-02
-7.609208e-02 -2.759114e-02 -4.929407e-02
-7.675551e-02 -2.788933e-02 -4.771628e-02
-7.713725e-02 -1.407624e-02 -4.151261e-02
-7.928878e-02 -3.349244e-02 -5.156683e-02
-7.899363e-02 -3.522233e-02 -5.477841e-02
-7.346963e-02 -1.001044e-02 -4.177261e-02
-5.068910e-03 -6.777381e-02 -7.105178e-02
-8.756939e-03 -6.225426e-02 -7.757876e-02
-8.906939e-03 -6.859109e-02 -8.570162e-02
-3.910601e-03 -6.596695e-02 -7.809808e-02
-7.702053e-02 -1.879856e-02 -3.958964e-02
-3.564586e-02 -1.655277e-02 -5.075607e-02
-4.046778e-02 -1.146799e-02 -4.953081e-02
-3.931795e-02 -2.268483e-02 -5.384472e-02
-3.200140e-02 -1.251829e-02 -4.786313e-02
-4.389661e-02 -1.802978e-02 -4.832277e-02
0.000000e+00 -7.098255e-02 -7.660785e-02
0.000000e+00 -6.725921e-02 -8.368592e-02
-3.964424e-02 0.000000e+00 -4.501162e-02
-4.406468e-02 0.000000e+00 -4.856218e-02
-3.584688e-02 0.000000e+00 -4.735607e-02
-1.471095e-02 2.493633e-02 -6.606945e-02
-1.436109e-01 -3.013116e-02 -7.009093e-02
-6.593194e-02 -9.762206e-04 -9.274980e-02
-1.208480e-01 -1.994921e-02 -4.405973e-02
-8.137928e-02 -7.947018e-03 -7.058039e-02
-9.676591e-02 -1.288854e-02 -8.266940e-02
-6.217009e-02 4.120857e-03 -8.326294e-02
-3.485448e-02 2.091151e-02 -1.029127e-01
-3.040253e-03 4.039676e-02 -8.298105e-02
-4.793755e-02 9.966188e-03 -1.030461e-01
-2.252728e-01 -2.076896e-02 -4.173043e-02
-7.899074e-02 -8.763081e-03 -8.583584e-02
-8.567100e-02 -7.320481e-03 -7.715924e-02
-4.077671e-02 -3.248243e-03 -1.182324e-01
-1.900309e-02 3.020402e-02 -7.495326e-02
-1.134888e-02 3.197222e-02 -6.722677e-02
-1.791730e-02 -1.929357e-02 -2.354021e-02
0.000000e+00 -1.987118e-02 -2.248008e-02
0.000000e+00 -1.843318e-02 -2.164056e-02
-1.841125e-01 -2.452186e-02 1.058142e-01
-6.282488e-03 -5.341327e-03 -4.332455e-02
-1.588990e-02 -2.129898e-02 -2.159196e-02
-1.482209e-02 -2.005923e-02 -1.873093e-02
0.000000e+00 -6.556696e-02 -6.233992e-02
0.000000e+00 -6.364636e-02 -6.834576e-02
-2.786349e-03 -6.062807e-02 -6.321693e-02
-1.669184e-02 -1.833428e-02 -2.060103e-02
-2.372156e-02 -2.022561e-02 -2.252633e-02
-1.187208e-02 -1.788278e-02 -2.198568e-02
-8.190454e-02 7.475313e-03 -3.187024e-02
-8.180550e-02 5.528990e-03 -3.229795e-02
-7.551398e-02 9.209198e-03 -2.907452e-02
-7.421603e-02 4.475764e-03 -2.749212e-02
-7.304749e-02 6.311418e-03 -2.747071e-02
-6.645635e-02 7.951230e-03 -2.507056e-02
-6.466951e-02 3.802033e-03 -2.378097e-02
-6.912907e-02 5.579878e-03 -2.434674e-02
1.605788e-03 -2.554377e-03 -1.127565e-01
0.000000e+00 5.928127e-03 -1.237248e-01
-3.085230e-02 9.738179e-03 -2.090497e-02
-2.288827e-02 7.703994e-03 -1.851905e-02
-3.133951e-02 7.839983e-03 -2.022026e-02
-3.334852e-02 8.847289e-03 -1.972185e-02
-6.699643e-02 0.000000e+00 -2.498737e-02
-7.002024e-02 0.000000e+00 -2.547405e-02
-6.988632e-02 1.532629e-02 -2.898856e-02
-6.078285e-02 1.005372e-02 -2.463274e-02
-7.198500e-02 1.212353e-02 -2.833584e-02
-6.466434e-02 1.091452e-02 -2.552908e-02
-6.338316e-02 0.000000e+00 -2.196150e-02
-2.408238e-02 0.000000e+00 -4.146823e-02
-2.779480e-02 -1.787814e-02 -4.531914e-02
-2.800167e-02 0.000000e+00 -4.537899e-02
-2.436421e-02 -1.153247e-02 -4.540387e-02
-8.141503e-02 1.762783e-02 -3.609000e-02
-8.794727e-02 2.061751e-02 -4.032463e-02
-8.812566e-02 1.624272e-02 -3.874900e-02
-8.090024e-02 1.392862e-02 -3.299943e-02
-2.500912e-02 -2.409896e-02 -4.962670e-02
-2.749699e-02 -1.722590e-02 -4.873559e-02
-2.320160e-02 0.000000e+00 -4.521580e-02
-1.978383e-01 9.865016e-03 -4.681428e-02
-2.266529e-01 -3.643860e-03 -3.519931e-02
-8.662344e-02 -7.914680e-03 -1.091925e-01
-7.803894e-02 -1.000249e-02 -9.004934e-02
-2.059650e-02 -1.788549e-02 -4.234285e-02
-1.798916e-02 -2.181715e-02 -4.498090e-02
-3.692693e-02 -2.157766e-02 -2.564410e-02
-2.753126e-02 -1.862137e-02 -2.372683e-02
-4.104681e-02 -1.995594e-02 -2.645550e-02
-3.692543e-02 -2.185813e-02 -2.482535e-02
-3.394612e-02 -2.039519e-02 -2.260691e-02
-5.529111e-02 -2.265650e-02 -3.052580e-02
-9.101544e-02 -8.735786e-03 -9.494053e-02
-3.355000e-02 -4.267014e-02 -1.096158e-01
-5.668708e-02 -3.063718e-02 -9.885575e-02
-5.191853e-02 -3.153975e-02 -9.437673e-02
0.000000e+00 1.159626e-02 -1.193817e-01
-6.567467e-02 -2.055933e-03 -1.090697e-01
-4.624761e-02 1.063065e-02 -1.105485e-01
-2.275761e-02 1.575622e-02 -1.173756e-01
4.273041e-03 3.245686e-02 -1.133250e-01
0.000000e+00 3.896982e-02 -1.164230e-01
3.222645e-03 4.386029e-02 -1.123267e-01
-3.554568e-02 4.371081e-03 -1.172662e-01
0.000000e+00 1.227105e-02 -1.253639e-01
-1.599967e-02 2.714015e-02 -1.139378e-01
-3.260576e-03 -7.541675e-02 -9.313620e-02
-2.063032e-02 -5.571477e-02 -8.819869e-02
-1.354977e-02 -6.115918e-02 -9.177332e-02
-3.387205e-02 -4.496626e-02 -9.570315e-02
-3.227205e-02 9.826125e-03 -2.068103e-02
-2.482523e-02 9.165971e-03 -2.166575e-02
-3.401468e-02 8.982688e-03 -2.200411e-02
-3.787834e-02 1.054202e-02 -2.365685e-02
-4.036224e-02 -3.790482e-02 -8.718012e-02
-4.096221e-03 -7.491679e-02 -8.142702e-02
-6.652780e-02 -1.682492e-02 -7.818308e-02
-2.617043e-03 -7.511884e-02 -8.010139e-02
-4.363683e-03 -7.252403e-02 -9.836266e-02
-5.525259e-02 6.493487e-03 -2.182933e-02
-2.190410e-02 -5.391987e-02 -1.036073e-01
-8.092936e-02 -3.123547e-02 -3.784818e-02
-7.603845e-02 -2.727182e-02 -3.389326e-02
-7.238919e-02 -2.142756e-02 -2.962174e-02
-7.533196e-02 -2.116655e-02 -3.094150e-02
-7.423057e-02 -1.585667e-02 -3.031565e-02
-7.201548e-02 -1.934104e-02 -2.775778e-02
-7.802960e-02 -2.942451e-02 -3.459957e-02
-6.193879e-02 5.340454e-03 -9.210671e-02
-5.887786e-02 1.505434e-02 -7.026294e-02
-6.372630e-02 5.667877e-03 -7.114677e-02
-6.117744e-02 9.273601e-03 -7.578560e-02
-5.465397e-02 5.612590e-03 -7.211494e-02
-4.979119e-02 5.668344e-03 -7.339338e-02
-4.939391e-02 0.000000e+00 -7.068074e-02
-5.933495e-02 5.657874e-03 -7.320937e-02
-5.228549e-02 8.776978e-03 -7.611948e-02
-5.873833e-02 0.000000e+00 -7.062182e-02
-5.420034e-02 0.000000e+00 -7.125409e-02
-5.894105e-02 4.592382e-03 -2.107130e-02
-6.816401e-02 1.062820e-02 -2.515997e-02
-8.830440e-02 8.558884e-03 -3.724002e-02
-8.476832e-02 0.000000e+00 -3.332775e-02
-8.472067e-02 0.000000e+00 -3.488894e-02
-8.674103e-02 5.996792e-03 -3.799058e-02
-8.319550e-02 1.191440e-02 -3.467028e-02
-3.952846e-03 -7.222028e-02 -8.158989e-02
-3.848502e-04 -7.406414e-02 -8.230741e-02
-8.392733e-02 8.239129e-03 -3.399636e-02
-8.035616e-02 0.000000e+00 -2.991931e-02
-7.768463e-02 6.640549e-03 -2.867953e-02
0.000000e+00 -6.548358e-02 -9.908121e-02
0.000000e+00 -6.163894e-02 -1.053644e-01
0.000000e+00 -5.864173e-02 -1.127017e-01
-9.830681e-03 -5.995029e-02 -1.074490e-01
5.504325e-04 -7.590711e-02 -9.699477e-02
0.000000e+00 -7.510519e-02 -1.008799e-01
1.486536e-03 -7.317331e-02 -1.091788e-01
-2.650962e-02 -4.974628e-02 -1.106801e-01
-1.490439e-02 -4.943419e-02 -1.173398e-01
-8.547608e-02 0.000000e+00 -3.536219e-02
-8.791288e-02 9.448906e-03 -4.025653e-02
-8.897715e-02 6.577047e-03 -4.432526e-02
-8.834586e-02 0.000000e+00 -4.086182e-02
-8.767416e-02 1.226609e-02 -4.089783e-02
-9.174263e-02 9.395613e-03 -4.353218e-02
-8.992372e-02 0.000000e+00 -3.892458e-02
-8.472831e-02 1.271832e-02 -6.600556e-02
-8.932644e-02 9.044763e-03 -5.684294e-02
-8.393952e-02 7.426533e-03 -6.355320e-02
-8.581225e-02 1.291945e-02 -6.008807e-02
0.000000e+00 2.353511e-02 -1.202272e-01
0.000000e+00 4.976669e-02 -1.109082e-01
-8.938215e-04 5.204827e-02 -1.080227e-01
0.000000e+00 3.455169e-02 -1.118357e-01
0.000000e+00 2.503130e-02 -1.142723e-01
-2.944591e-02 2.579218e-02 -1.075303e-01
-7.511934e-02 0.000000e+00 -4.166310e-02
-7.140781e-02 0.000000e+00 -4.234741e-02
-6.937114e-02 -1.069716e-02 -4.519287e-02
-7.273681e-02 0.000000e+00 -3.796140e-02
-3.252477e-02 -2.277349e-02 -2.308881e-02
-2.247225e-02 -2.087511e-02 -2.029483e-02
-3.510640e-02 -2.238284e-02 -2.298020e-02
-4.561409e-02 -2.409102e-02 -2.475455e-02
-3.373202e-02 -2.198769e-02 -2.166895e-02
-3.218747e-02 -2.143582e-02 -2.138161e-02
-4.574130e-02 -2.369694e-02 -2.392753e-02
-4.857250e-02 -2.317776e-02 -2.566643e-02
-3.025529e-02 -2.125681e-02 -2.011071e-02
1.888897e-03 9.483529e-03 -4.414380e-02
-1.654649e-01 -2.171056e-02 -8.176993e-03
-9.061161e-02 2.250300e-02 -5.589011e-02
-8.794559e-02 1.965131e-02 -6.679426e-02
-1.788683e-01 -3.255269e-02 -5.465574e-02
-2.026512e-03 -6.877429e-02 -6.236614e-02
-3.079692e-03 -6.546762e-02 -9.277387e-02
-5.450707e-03 -5.782064e-02 -2.698366e-02
-6.910362e-02 -1.980769e-02 -7.868334e-02
-1.937471e-01 5.572063e-02 -2.746008e-02
-1.388018e-01 9.316407e-03 -8.443229e-02
-4.423133e-03 -6.470382e-02 -6.787976e-02
-9.875065e-03 -5.484385e-02 -6.262021e-02
-6.292368e-03 -5.747793e-02 -6.305058e-02
-1.314251e-02 -5.900003e-02 -7.629711e-02
-4.985027e-03 -5.442249e-02 -5.393713e-02
-9.450361e-03 -4.233222e-02 -4.991405e-02
-5.334411e-03 -4.745550e-02 -5.080291e-02
-1.290688e-02 -5.083282e-02 -6.066502e-02
-7.489986e-03 -5.413212e-02 -5.625454e-02
-7.204384e-02 5.593926e-03 -6.847601e-02
-6.828975e-02 5.577951e-03 -7.168271e-02
-7.289746e-02 0.000000e+00 -6.789845e-02
-7.600149e-02 1.100058e-02 -7.018489e-02
-6.916833e-02 9.214231e-03 -7.341787e-02
-1.877800e-02 -1.668719e-02 -2.435566e-02
0.000000e+00 -1.598386e-02 -2.234704e-02
0.000000e+00 -1.479008e-02 -2.384679e-02
-1.246659e-02 -1.515421e-02 -2.272192e-02
-1.750038e-02 -1.594642e-02 -2.136874e-02
0.000000e+00 -1.687942e-02 -2.021622e-02
0.000000e+00 -1.780982e-02 -2.327040e-02
-8.704162e-02 0.000000e+00 -5.835237e-02
-8.208117e-02 0.000000e+00 -6.056130e-02
-7.262394e-02 1.508555e-02 -3.029572e-02
-8.017685e-02 1.815121e-02 -3.413756e-02
-7.414437e-02 1.284263e-02 -2.960594e-02
-7.627186e-02 1.625473e-02 -3.081988e-02
-3.332419e-02 -3.685948e-02 -6.469798e-02
-2.653967e-02 -3.271357e-02 -5.466830e-02
-3.429359e-02 -3.067067e-02 -5.700070e-02
-3.098734e-02 -3.315135e-02 -5.771683e-02
-8.938563e-02 -7.350058e-03 -1.067229e-01
-2.366442e-02 -3.454565e-02 -5.459339e-02
-4.186662e-03 3.926304e-02 -6.787466e-02
-8.978354e-03 4.131011e-02 -8.123298e-02
-1.255256e-02 3.828849e-02 -7.833484e-02
-2.524325e-02 -3.726048e-02 -5.168794e-02
-3.207869e-02 -2.433651e-02 -5.264963e-02
-2.904427e-02 -3.933371e-02 -6.336905e-02
-3.282622e-02 -3.677767e-02 -5.357080e-02
-2.854035e-02 -5.163430e-02 -6.153777e-02
-3.646821e-02 -3.586089e-02 -6.576011e-02
-1.845815e-02 6.341294e-03 -2.376739e-02
0.000000e+00 5.508132e-03 -2.140611e-02
0.000000e+00 7.289361e-03 -2.259230e-02
-1.382674e-02 7.493723e-03 -2.154211e-02
-1.730185e-02 5.373898e-03 -2.089663e-02
-2.773056e-02 5.495299e-03 -2.396806e-02
0.000000e+00 7.496713e-03 -2.057454e-02
-1.758972e-02 8.572820e-03 -2.284270e-02
0.000000e+00 6.255551e-03 -1.964717e-02
-8.761739e-02 0.000000e+00 -4.819276e-02
-8.813761e-02 6.767623e-03 -5.208157e-02
-9.198253e-02 9.590887e-03 -5.020206e-02
-9.096646e-02 0.000000e+00 -5.184558e-02
-8.864356e-02 1.290981e-02 -5.359849e-02
-5.732627e-02 8.648527e-03 -2.173046e-02
-6.199718e-02 1.277802e-02 -2.576609e-02
-5.294052e-02 8.993932e-03 -2.208381e-02
-3.884160e-02 -1.927111e-02 -2.688789e-02
-4.231664e-02 -1.766760e-02 -2.713937e-02
-5.528017e-02 -1.710729e-02 -3.176463e-02
-3.853038e-02 -1.368425e-02 -2.686477e-02
-3.733818e-02 -1.565408e-02 -2.465513e-02