# vtk DataFile Version 2.0
Simplicial Mesh Example
ASCII
DATASET UNSTRUCTURED_GRID
POINTS 9235 double
3.320296e+05 -1.479713e+05 -5.000000e+04
3.230490e+05 -1.698867e+05 -2.450301e+04
3.473967e+05 -1.610091e+05 -2.499295e+04
3.230191e+05 -1.453594e+05 -2.376374e+04
3.000000e+05 -1.659466e+05 0.000000e+00
3.323841e+05 -1.500853e+05 0.000000e+00
3.000000e+05 -1.298234e+05 -5.000000e+04
3.211390e+05 -1.219510e+05 -2.456343e+04
3.000000e+05 -1.488492e+05 -2.774542e+04
3.000000e+05 -1.638587e+05 -5.000000e+04
-3.410447e+05 -3.313729e+05 -5.000000e+04
-3.562722e+05 -3.568159e+05 -2.596779e+04
-3.399470e+05 -3.173800e+05 -2.518749e+04
-3.709613e+05 -3.293268e+05 -2.460153e+04
8.320003e+04 -3.000000e+05 -2.235380e+04
1.000000e+05 -3.000000e+05 0.000000e+00
8.376766e+04 -3.323560e+05 0.000000e+00
1.022059e+05 -3.232166e+05 -2.436054e+04
9.218191e+04 -3.479439e+05 -2.506288e+04
7.450652e+04 -3.246631e+05 -2.586070e+04
8.376391e+04 -3.320935e+05 -5.000000e+04
1.000000e+05 -3.000000e+05 -5.000000e+04
6.666667e+04 -3.000000e+05 -5.000000e+04
4.909161e+04 -3.211949e+05 -2.159753e+04
-3.000000e+05 -2.284991e+05 -5.000000e+04
-3.319474e+05 -2.124896e+05 -5.000000e+04
-3.218152e+05 -2.373449e+05 -2.716838e+04
-3.186433e+05 -2.130922e+05 -3.089857e+04
3.680760e+05 -6.909438e+04 0.000000e+00
3.760404e+05 -8.535114e+04 -2.432411e+04
3.481610e+05 -6.095230e+04 -2.499963e+04
3.758419e+05 -5.047205e+04 -2.434620e+04
-3.000000e+05 -2.326501e+05 0.000000e+00
-3.000000e+05 -2.125115e+05 -2.265069e+04
-3.000000e+05 -1.989752e+05 0.000000e+00
-3.227151e+05 -1.919352e+05 -2.817559e+04
-3.324295e+05 -2.170264e+05 0.000000e+00
-2.490803e+05 -3.000000e+05 -2.221961e+04
-2.515393e+05 -3.324613e+05 0.000000e+00
-2.666667e+05 -3.000000e+05 0.000000e+00
-2.738346e+05 -3.252416e+05 -2.491374e+04
3.676956e+05 -6.866168e+04 -5.000000e+04
4.000000e+05 -8.695652e+04 -5.000000e+04
4.000000e+05 -5.217391e+04 -5.000000e+04
4.000000e+05 -6.957979e+04 -2.232138e+04
-2.333333e+05 -3.000000e+05 -5.000000e+04
-2.666667e+05 -3.000000e+05 -5.000000e+04
-2.512538e+05 -3.321783e+05 -5.000000e+04
-2.508504e+05 -3.238766e+05 -2.894778e+04
-2.288410e+05 -3.237531e+05 -2.554757e+04
-2.332968e+05 -3.501801e+05 -2.524712e+04
-1.499969e+05 -3.000000e+05 -2.764283e+04
-1.666667e+05 -3.000000e+05 0.000000e+00
-1.716166e+05 -3.233333e+05 -2.542063e+04
-1.478789e+05 -3.226382e+05 -2.533861e+04
-1.507909e+05 -3.323848e+05 0.000000e+00
-1.630826e+05 -3.498393e+05 -2.503121e+04
-1.507405e+05 -3.321164e+05 -5.000000e+04
-1.194653e+05 -3.220088e+05 -2.222167e+04
-1.333333e+05 -3.000000e+05 -5.000000e+04
-1.666667e+05 -3.000000e+05 -5.000000e+04
-1.043477e+05 4.000000e+05 -2.232281e+04
-1.038755e+05 3.680862e+05 0.000000e+00
-1.217391e+05 4.000000e+05 0.000000e+00
-1.224620e+05 3.788441e+05 -2.436654e+04
-1.217391e+05 4.000000e+05 -5.000000e+04
-9.211340e+04 3.779330e+05 -2.656844e+04
-6.923876e+04 -3.678233e+05 -5.000000e+04
-8.695652e+04 -4.000000e+05 -5.000000e+04
-5.217391e+04 -4.000000e+05 -5.000000e+04
-6.956714e+04 -4.000000e+05 -2.232106e+04
-1.249943e+05 3.519836e+05 -2.486759e+04
-1.038072e+05 3.678091e+05 -5.000000e+04
-1.739130e+04 -4.000000e+05 -5.000000e+04
-3.460350e+04 -3.678269e+05 -5.000000e+04
-3.478387e+04 -4.000000e+05 -2.232106e+04
-1.651509e+04 -3.754742e+05 -2.442335e+04
-8.376345e+04 3.320934e+05 -5.000000e+04
-1.000000e+05 3.000000e+05 -5.000000e+04
-8.343627e+04 3.000000e+05 -2.764981e+04
-1.026187e+05 3.239050e+05 -2.445309e+04
-6.666667e+04 3.000000e+05 -5.000000e+04
-5.147032e+04 3.217565e+05 -2.303829e+04
4.000000e+05 3.304348e+05 -5.000000e+04
4.000000e+05 3.130499e+05 -2.232112e+04
4.000000e+05 3.478935e+05 -2.235349e+04
3.674886e+05 3.295924e+05 -2.467361e+04
-6.033593e+04 3.477011e+05 -2.439908e+04
-7.701272e+04 3.234532e+05 -1.862781e+04
-8.379954e+04 3.323534e+05 0.000000e+00
-9.028036e+04 3.505284e+05 -2.483995e+04
3.000000e+05 -8.185378e+04 -2.769067e+04
3.000000e+05 -6.540655e+04 0.000000e+00
3.219834e+05 -9.262369e+04 -2.356665e+04
3.212381e+05 -6.353317e+04 -2.568389e+04
3.320030e+05 -7.972620e+04 -5.000000e+04
3.000000e+05 -4.823862e+04 -2.768751e+04
3.000000e+05 -6.175270e+04 -5.000000e+04
3.319980e+05 -4.560520e+04 -5.000000e+04
1.000000e+05 3.000000e+05 0.000000e+00
1.285319e+05 3.220153e+05 -2.330358e+04
1.166485e+05 3.000000e+05 -2.764255e+04
9.924408e+04 3.212454e+05 -2.557582e+04
1.172876e+05 3.321041e+05 -5.000000e+04
1.000000e+05 3.000000e+05 -5.000000e+04
1.172617e+05 3.323725e+05 0.000000e+00
1.739130e+04 -4.000000e+05 -5.000000e+04
3.478141e+04 -4.000000e+05 -2.232106e+04
3.460470e+04 -3.678270e+05 -5.000000e+04
1.646691e+04 -3.753828e+05 -2.432691e+04
9.656745e+04 3.481700e+05 -2.494853e+04
3.680819e+05 1.387484e+05 0.000000e+00
3.789347e+05 1.274418e+05 -2.657151e+04
3.531101e+05 1.597755e+05 -2.518599e+04
3.792098e+05 1.574583e+05 -2.441774e+04
4.000000e+05 1.565217e+05 0.000000e+00
4.000000e+05 1.391303e+05 -2.231930e+04
6.857177e+00 3.678309e+05 -5.000000e+04
1.673721e+04 3.320840e+05 -5.000000e+04
3.460423e+04 3.678269e+05 -5.000000e+04
2.880282e+04 3.508021e+05 -2.489257e+04
-3.461370e+04 -3.681008e+05 0.000000e+00
-1.739130e+04 -4.000000e+05 0.000000e+00
-1.676283e+04 3.320851e+05 -5.000000e+04
1.537478e+03 3.361402e+05 -2.528450e+04
3.679848e+05 1.390962e+05 -5.000000e+04
-4.999978e+04 -3.000000e+05 -2.235748e+04
-1.678469e+04 -3.000000e+05 -2.764887e+04
-1.676668e+04 -3.323444e+05 0.000000e+00
-5.499684e+04 -3.228669e+05 -2.776930e+04
4.000000e+05 1.565217e+05 -5.000000e+04
3.676239e+05 -2.421373e+05 -5.000000e+04
4.000000e+05 -2.434785e+05 -2.767896e+04
3.747803e+05 -2.281317e+05 -2.552755e+04
3.782485e+05 -2.607848e+05 -2.580555e+04
-3.128530e+05 -3.661813e+05 -5.000000e+04
-2.847026e+05 -3.321560e+05 -5.000000e+04
-3.161470e+05 -3.277621e+05 -5.000000e+04
-3.120399e+05 -3.401367e+05 -2.465985e+04
3.512666e+05 -2.655302e+05 -2.501422e+04
3.679951e+05 -2.423193e+05 0.000000e+00
4.000000e+05 -2.608696e+05 0.000000e+00
-1.455192e-10 3.000000e+05 -5.000000e+04
-1.665884e+04 3.000000e+05 -2.764283e+04
1.678621e+04 3.000000e+05 -2.764891e+04
3.000000e+05 -2.490234e+05 -2.248769e+04
3.324577e+05 -2.511100e+05 0.000000e+00
3.238293e+05 -2.640014e+05 -2.441041e+04
3.212088e+05 -2.325011e+05 -2.423874e+04
3.320637e+05 -2.503757e+05 -5.000000e+04
3.463683e+05 -2.303855e+05 -2.500317e+04
-3.698054e+05 -3.472763e+05 0.000000e+00
-3.663396e+05 -3.129808e+05 0.000000e+00
-3.315797e+05 -3.410949e+05 0.000000e+00
3.000000e+05 -2.319293e+05 -5.000000e+04
1.730839e+05 3.678997e+05 -5.000000e+04
1.571942e+05 3.749461e+05 -2.554585e+04
1.947972e+05 3.532715e+05 -2.489915e+04
1.912984e+05 3.786912e+05 -2.581857e+04
1.913043e+05 4.000000e+05 -5.000000e+04
1.739026e+05 4.000000e+05 -2.767885e+04
3.704421e+05 3.503181e+05 -5.000000e+04
-3.674293e+05 -2.066073e+05 -5.000000e+04
-3.494471e+05 -2.292202e+05 -2.526698e+04
-3.497009e+05 -1.977915e+05 -2.539897e+04
1.731007e+05 3.680556e+05 0.000000e+00
1.913043e+05 4.000000e+05 0.000000e+00
4.000000e+05 2.956522e+05 0.000000e+00
4.000000e+05 2.782599e+05 -2.232106e+04
3.700232e+05 2.952130e+05 -2.459328e+04
-2.177434e+05 -3.321524e+05 -5.000000e+04
-2.166738e+05 -3.000000e+05 -2.767207e+04
-2.002275e+05 -3.215730e+05 -2.585451e+04
-1.985707e+05 -3.482959e+05 -2.510962e+04
-2.179099e+05 -3.324288e+05 0.000000e+00
-2.000000e+05 -3.000000e+05 0.000000e+00
-4.000000e+05 -1.739130e+04 -5.000000e+04
-4.000000e+05 1.362271e+00 -2.232106e+04
-4.000000e+05 -3.478139e+04 -2.232106e+04
-3.764375e+05 -1.615686e+04 -2.441389e+04
-1.172644e+05 3.321057e+05 -5.000000e+04
-1.165333e+05 3.000000e+05 -2.235380e+04
-1.172626e+05 3.323723e+05 0.000000e+00
-1.351151e+05 3.242796e+05 -2.432698e+04
-1.000000e+05 3.000000e+05 0.000000e+00
3.000000e+05 -1.154172e+05 -2.769106e+04
3.000000e+05 -9.891990e+04 0.000000e+00
3.323674e+05 -1.164140e+05 0.000000e+00
3.494970e+05 -9.661460e+04 -2.478315e+04
3.320115e+05 -1.138445e+05 -5.000000e+04
3.000000e+05 -9.578803e+04 -5.000000e+04
-3.683842e+05 -3.117444e+05 -5.000000e+04
-3.704229e+05 -3.502942e+05 -5.000000e+04
-3.000000e+05 -1.676695e+04 -5.000000e+04
-3.000000e+05 -3.162526e+04 0.000000e+00
-3.000000e+05 1.537267e+03 0.000000e+00
-3.215156e+05 -1.436666e+04 -2.547447e+04
-2.627419e+05 -3.499829e+05 -2.513924e+04
-3.324526e+05 -2.845988e+05 0.000000e+00
-3.280582e+05 -3.160567e+05 0.000000e+00
-2.333333e+05 -3.000000e+05 0.000000e+00
-1.731007e+05 -3.680556e+05 0.000000e+00
-1.545447e+05 -3.761882e+05 -2.496605e+04
-1.738957e+05 -4.000000e+05 -2.758994e+04
-1.892592e+05 -3.758330e+05 -2.503546e+04
-2.077253e+05 -3.680332e+05 0.000000e+00
-2.238681e+05 -3.761511e+05 -2.500739e+04
-1.913043e+05 -4.000000e+05 -5.000000e+04
-2.086560e+05 -4.000000e+05 -2.240978e+04
-1.730589e+05 -3.677722e+05 -5.000000e+04
6.957979e+04 4.000000e+05 -2.232138e+04
5.217391e+04 4.000000e+05 0.000000e+00
3.478536e+04 4.000000e+05 -2.232108e+04
5.076709e+04 3.763881e+05 -2.432357e+04
5.217391e+04 4.000000e+05 -5.000000e+04
1.674987e+04 3.323474e+05 0.000000e+00
3.500461e+04 3.242904e+05 -2.486949e+04
3.461320e+04 3.681000e+05 0.000000e+00
4.999984e+04 3.000000e+05 -2.235747e+04
3.333333e+04 3.000000e+05 0.000000e+00
1.624297e+04 3.760050e+05 -2.438535e+04
-3.680268e+05 2.424010e+05 0.000000e+00
-3.501061e+05 2.289790e+05 -2.510660e+04
-3.680500e+05 2.077851e+05 0.000000e+00
-3.762767e+05 2.231686e+05 -2.569080e+04
6.044606e+04 3.500124e+05 -2.491520e+04
-1.731195e+05 3.680519e+05 0.000000e+00
-1.545405e+05 3.762789e+05 -2.429555e+04
-1.611352e+05 3.500581e+05 -2.482426e+04
-1.910310e+05 3.748826e+05 -2.441742e+04
-1.384382e+05 3.677954e+05 -5.000000e+04
-4.000000e+05 2.260870e+05 0.000000e+00
-4.000000e+05 2.086964e+05 -2.767894e+04
-1.565217e+05 4.000000e+05 -5.000000e+04
-1.391303e+05 4.000000e+05 -2.231930e+04
-1.739120e+05 4.000000e+05 -2.232105e+04
-2.883046e+05 -3.320639e+05 0.000000e+00
-3.323717e+05 -1.156481e+05 0.000000e+00
-3.489067e+05 -1.010526e+05 -2.439261e+04
-3.250615e+05 -9.110468e+04 -2.328549e+04
-3.294786e+05 -1.230635e+05 -2.464286e+04
[...]
CELL_DATA 17877
SCALARS total_strain double 6
LOOKUP_TABLE default
3.025773e-06 -9.786761e-07 -1.204140e-06 1.470119e-06 -2.042569e-07 -6.905545e-07
2.966506e-06 -1.231839e-06 -7.481474e-07 1.083075e-06 -3.408584e-07 -5.971086e-07
2.612764e-06 -5.090445e-07 -8.913252e-07 1.081613e-06 -1.479281e-07 -2.536053e-07
3.194427e-06 -1.184983e-06 -7.944677e-07 9.732861e-07 -2.583129e-07 -8.655108e-07
2.777708e-06 -6.198037e-07 -1.138473e-06 5.382184e-07 -4.582404e-07 -4.256789e-07
3.004930e-06 -6.004362e-07 -1.338085e-06 6.048964e-07 -3.755107e-07 -1.049224e-07
2.256828e-06 -7.433795e-07 -1.140950e-06 7.919758e-07 -3.935035e-07 -5.611217e-07
2.318209e-07 4.869519e-07 -4.635814e-07 -2.804106e-07 -1.275551e-07 9.079964e-08
1.784296e-07 4.695344e-07 -3.657557e-07 -1.069877e-07 -6.705878e-08 1.120459e-07
1.644882e-07 3.878571e-07 -3.327468e-07 -1.460002e-07 -7.831838e-08 9.036333e-08
1.784948e-07 4.425783e-07 -4.011220e-07 -1.554176e-07 -1.075576e-07 1.232396e-07
1.718830e-07 3.850539e-07 -3.967732e-07 -1.478929e-07 -5.649244e-08 7.479259e-08
1.782496e-07 4.792681e-07 -4.111318e-07 -1.119154e-07 -5.025122e-08 8.943056e-08
1.105099e-07 5.922232e-07 -5.300562e-07 -2.373112e-07 -6.670916e-08 1.166949e-07
1.320290e-07 5.100261e-07 -4.208564e-07 -2.348038e-07 -1.414814e-07 1.110239e-07
3.041903e-07 2.848838e-07 -5.270482e-07 -2.639521e-07 6.721051e-07 -3.093488e-07
5.138422e-07 2.201697e-07 -4.532428e-07 -2.870182e-07 5.916742e-07 -2.205274e-07
2.567265e-07 2.708028e-07 -3.334568e-07 -1.376321e-07 4.722087e-07 -1.417069e-07
-6.706355e-08 2.817495e-07 -3.242153e-07 -9.050651e-08 5.175383e-07 -2.531435e-07
8.238897e-08 6.553951e-07 -5.405446e-07 -1.219329e-07 -4.451785e-08 1.506721e-08
1.203904e-07 6.488214e-07 -5.459016e-07 -1.175739e-07 -3.700783e-08 -1.392343e-09
1.443788e-07 5.190526e-07 -4.502290e-07 -5.097936e-08 -9.948448e-09 1.029713e-08
1.454388e-08 7.281291e-07 -4.976860e-07 -4.542566e-08 -6.669283e-08 1.064482e-07
-4.047765e-08 7.281381e-07 -5.489702e-07 -1.667872e-07 -1.377278e-07 8.732107e-08
4.511144e-08 5.302752e-07 -4.483275e-07 -8.348075e-08 -7.929870e-08 9.375018e-08
4.589672e-08 5.796499e-07 -4.622914e-07 -6.995766e-08 1.224184e-08 9.566872e-08
9.463111e-08 6.398506e-07 -4.343628e-07 -1.699665e-07 -1.218639e-07 1.204059e-07
1.293922e-07 3.250227e-07 -2.532068e-07 -1.161805e-07 -1.084294e-07 1.576470e-07
2.041198e-07 2.777459e-07 -2.316047e-07 -1.395417e-07 -1.246034e-07 1.165518e-07
1.718648e-07 2.685514e-07 -2.672318e-07 -7.736659e-08 -6.069363e-08 8.250808e-08
1.460850e-07 3.161878e-07 -2.138373e-07 -1.050291e-07 -1.351194e-07 1.524166e-07
5.351750e-08 4.031067e-07 -3.548002e-07 -1.469728e-07 -2.875551e-07 2.246717e-07
6.696251e-08 4.285372e-07 -2.255809e-07 -1.708889e-07 -2.245940e-07 1.945768e-07
-3.655281e-08 4.342786e-07 -3.990306e-07 -1.608247e-07 -2.921087e-07 2.037673e-07
2.484893e-06 -5.856031e-07 -3.930864e-07 -3.820585e-07 3.418756e-07 -8.812105e-07
2.016010e-08 4.316911e-07 -2.735327e-07 -8.003022e-08 -1.702357e-07 9.792207e-08
5.489734e-08 3.573735e-07 -3.338402e-07 -9.704361e-08 -1.864951e-07 1.819221e-07
-1.452969e-08 3.497006e-07 -2.360016e-07 -1.148130e-07 -2.554631e-07 1.738004e-07
-7.555498e-08 5.991624e-07 -2.889857e-07 -5.029260e-08 8.135376e-08 -4.681865e-08
-7.281519e-08 5.767182e-07 -3.485361e-07 -4.723986e-08 1.232771e-07 -6.021383e-08
-6.129322e-08 6.754263e-07 -3.815494e-07 -1.122656e-07 1.419531e-07 -6.059580e-08
-2.488307e-08 6.666740e-07 -4.097336e-07 -1.265427e-07 1.073534e-07 -3.651835e-08
-3.399268e-08 5.537879e-07 -3.260663e-07 -5.100117e-08 1.244158e-07 -3.172108e-08
3.465198e-07 1.376691e-07 -1.805896e-07 -2.006028e-08 -3.783527e-09 2.170313e-08
3.560367e-07 1.355100e-07 -1.882570e-07 -2.626472e-08 -2.732677e-09 6.384917e-09
3.543576e-07 1.201578e-07 -1.724911e-07 -1.682671e-08 -3.330297e-09 1.387518e-08
3.561185e-07 1.156277e-07 -1.858494e-07 -2.274277e-08 -5.750094e-09 1.148539e-08
3.584894e-07 1.155701e-07 -1.753519e-07 -2.808729e-08 -8.297394e-09 1.062591e-08
5.695896e-07 -8.912112e-08 -1.928640e-07 -6.660874e-09 -7.027008e-09 1.072094e-08
3.360804e-07 1.173900e-07 -1.800265e-07 -3.462945e-08 -4.590040e-09 2.099558e-08
4.919249e-07 -4.794475e-09 -1.928935e-07 -4.683443e-08 -1.227646e-08 -1.425564e-10
5.110617e-07 -2.837624e-08 -1.944505e-07 -3.611280e-08 5.055249e-09 8.841847e-09
-1.366907e-05 -1.100157e-05 3.779020e-05 3.862459e-06 -5.546383e-06 -6.247512e-06
5.666311e-07 -4.304100e-08 -2.358474e-07 -6.687129e-08 5.039966e-09 1.445160e-08
5.113018e-07 -4.470519e-08 -1.907163e-07 -3.678176e-08 -3.135495e-09 1.376928e-08
5.091296e-07 -2.217821e-08 -1.841598e-07 -3.217174e-08 -1.535116e-08 1.172844e-08
5.151636e-07 -4.496536e-08 -2.000209e-07 -3.722890e-08 -4.942031e-09 6.791640e-09
5.261075e-07 -3.590225e-08 -2.230784e-07 -7.728260e-08 -5.199798e-09 9.883632e-09
-1.061133e-08 5.397823e-07 -3.048000e-07 2.352723e-08 -1.034527e-07 -3.273985e-08
6.606702e-08 5.910633e-07 -5.196067e-07 -3.255537e-09 -1.158206e-07 -2.236895e-08
7.888375e-09 5.979195e-07 -4.341726e-07 5.942728e-08 -1.192526e-07 -4.616327e-08
1.868823e-08 6.830315e-07 -5.174324e-07 7.717409e-08 -1.296284e-07 -5.494683e-08
7.575221e-09 6.748134e-07 -5.261334e-07 6.201085e-08 -9.461269e-08 -3.901570e-08
3.309492e-08 5.334889e-07 -4.513782e-07 2.301029e-09 -1.879792e-07 -3.529353e-08
1.201982e-06 -1.088531e-07 -4.815917e-07 1.045906e-06 -5.856410e-07 -3.690852e-07
7.475277e-07 2.090661e-07 -6.682248e-07 1.036433e-06 -6.396613e-07 -3.745730e-07
1.370279e-06 -6.551670e-09 -9.591005e-07 1.165357e-06 -6.626806e-07 -5.624843e-07
1.850637e-06 1.206277e-07 -9.349593e-07 1.871786e-06 -3.927859e-07 -4.903504e-07
1.773180e-06 -5.279275e-08 -4.994239e-07 1.237961e-06 -8.125808e-07 -8.615092e-07
2.293518e-06 2.335245e-07 -9.081475e-07 1.637123e-06 -5.215206e-07 -2.961488e-07
1.424344e-06 2.065138e-07 -9.640170e-07 1.056071e-06 -5.657654e-07 -6.220723e-07
5.865331e-07 -1.101533e-07 -1.614216e-07 5.981817e-09 5.621166e-09 4.113543e-08
5.767780e-07 -1.112995e-07 -1.783831e-07 1.849100e-09 -8.908288e-10 1.161136e-08
5.932314e-07 -1.094412e-07 -1.895364e-07 -2.703533e-09 -3.268592e-09 1.223394e-08
5.876562e-07 -1.106021e-07 -2.006042e-07 6.565109e-09 1.374766e-09 4.528611e-08
5.887281e-07 -1.092355e-07 -1.983487e-07 -2.388610e-09 9.431307e-10 4.045230e-08
-1.014084e-07 5.502267e-07 -2.297912e-07 -4.607522e-08 1.284359e-07 -5.571232e-08
-1.187240e-07 5.795882e-07 -3.180578e-07 -3.816244e-08 9.392893e-08 -5.113768e-08
-1.002426e-07 5.936463e-07 -2.895920e-07 -2.668139e-08 8.346601e-08 -9.989445e-08
1.529499e-07 3.792882e-07 -2.700642e-07 2.912000e-08 -1.862898e-16 -3.198658e-09
-1.268347e-07 7.034247e-07 -3.503522e-07 -1.019405e-07 1.204671e-07 -8.280068e-08
-1.060035e-07 5.587023e-07 -2.855659e-07 -3.781878e-08 1.389747e-07 -7.495018e-08
-1.027758e-07 6.034428e-07 -3.591421e-07 -1.009813e-07 1.504851e-07 -8.077453e-08
-8.757487e-08 6.974773e-07 -3.373739e-07 -8.274651e-08 1.179766e-07 -6.524053e-08
3.990048e-07 6.792946e-08 -1.499956e-07 -3.327454e-08 -1.071293e-08 9.828294e-09
1.349814e-07 5.082905e-07 -3.962062e-07 1.809608e-07 2.705223e-08 4.729571e-09
4.042087e-07 5.671217e-08 -1.511117e-07 -2.076479e-08 -3.050986e-09 4.685618e-09
4.046164e-07 5.166041e-08 -1.482964e-07 -2.104304e-08 -4.620342e-09 5.781212e-09
4.140755e-07 5.768991e-08 -1.507813e-07 -3.537143e-08 -1.137457e-08 1.039746e-08
4.021333e-07 5.978160e-08 -1.493372e-07 -3.966426e-08 -1.277826e-08 1.484777e-08
3.970853e-07 6.742066e-08 -1.547507e-07 -3.515407e-08 -8.382735e-09 1.298421e-08
4.021249e-07 7.102294e-08 -1.657364e-07 -4.009588e-08 -1.713518e-08 1.750037e-08
3.825913e-07 6.538137e-08 -1.489808e-07 -2.928249e-08 -5.033479e-09 8.554431e-09
1.197903e-06 -4.995783e-07 -7.037942e-07 -3.471727e-07 5.132664e-07 -4.883423e-07
1.205238e-06 -4.716415e-07 -7.997627e-07 -3.631486e-07 3.361395e-07 -3.401914e-07
9.135282e-07 -7.486191e-08 -3.114340e-07 -7.976810e-07 1.276674e-06 -1.082051e-06
1.158783e-06 -4.835300e-07 -8.228421e-07 -6.929389e-07 5.264603e-07 -3.067866e-07
1.791800e-06 -4.086409e-07 -8.136209e-07 -5.952122e-07 5.618778e-07 -7.019267e-07
1.811834e-06 -4.512159e-07 -5.864082e-07 -6.950880e-07 6.670148e-07 -1.034078e-07
5.566297e-07 -9.389286e-08 -1.655312e-07 7.663349e-09 7.618500e-10 1.534855e-08
5.764805e-07 -1.047766e-07 -1.647939e-07 4.994292e-09 1.530958e-09 1.050158e-08
5.767618e-07 -1.077323e-07 -1.639259e-07 9.505821e-09 -1.695013e-09 3.341486e-08
5.567261e-07 -9.377002e-08 -1.924537e-07 1.345775e-08 5.304784e-09 3.366410e-08
5.774188e-07 -1.048293e-07 -1.795729e-07 4.193563e-09 2.935397e-09 1.461255e-08
5.851745e-07 -1.039695e-07 -1.829211e-07 9.165718e-09 1.329596e-09 1.294556e-08
3.766846e-07 8.039847e-08 -1.841721e-07 -5.595115e-08 -1.674977e-08 2.451850e-08
3.865876e-07 8.575871e-08 -1.591227e-07 -6.373240e-08 -2.266756e-08 3.347746e-08
3.853735e-07 9.697950e-08 -1.760927e-07 -6.860423e-08 -3.109597e-08 3.751284e-08
3.742541e-07 1.014516e-07 -1.827339e-07 -5.436462e-08 -1.123290e-08 2.507227e-08
2.284851e-06 -4.165878e-07 2.240458e-06 4.399043e-06 -3.072586e-07 -2.730404e-07
3.892691e-07 8.785373e-08 -1.806583e-07 -5.390542e-08 -2.136425e-09 2.772387e-08
3.831745e-07 9.172423e-08 -1.621649e-07 -5.173914e-08 -1.181041e-08 1.586364e-08
6.828166e-08 4.989225e-07 -3.038563e-07 -1.297306e-07 -1.056940e-07 1.102238e-07
5.780714e-08 3.551037e-07 -2.380108e-07 -1.009571e-07 -1.887508e-07 1.472576e-07
-2.974138e-09 4.534524e-07 -3.339759e-07 -7.231840e-08 -1.427413e-07 1.572848e-07
-1.021087e-08 3.388023e-07 -2.104129e-07 -1.414871e-08 -5.363732e-08 1.230973e-07
3.512599e-08 3.723038e-07 -2.809001e-07 -5.775664e-08 -7.539079e-08 1.203197e-07
4.543449e-07 2.061192e-08 -1.490769e-07 -1.233767e-08 -4.230059e-09 1.017674e-09
4.818605e-07 -3.687796e-09 -1.565021e-07 -1.294760e-08 -1.220855e-08 1.328502e-08
4.621357e-07 -5.777310e-09 -1.560782e-07 -2.516265e-08 -4.556069e-09 1.512894e-08
4.555965e-07 1.337399e-08 -1.630990e-07 -3.168965e-08 -9.789179e-09 1.818082e-08
4.738335e-07 8.805105e-09 -1.600921e-07 -1.839864e-08 -6.968979e-09 3.433555e-09
4.620929e-07 -8.487658e-09 -1.660058e-07 -2.418302e-08 -1.124688e-08 1.897943e-08
5.981911e-08 4.335569e-07 -3.883965e-07 -1.658456e-07 -2.921140e-07 2.410971e-07
1.295081e-07 1.695590e-07 -2.267478e-07 -1.130169e-07 -2.201917e-07 1.713502e-07
1.184885e-07 3.696037e-07 -2.082817e-07 -1.425453e-07 -1.570904e-07 1.667388e-07
7.192496e-08 1.585643e-07 -4.323666e-07 2.885106e-07 -7.191453e-07 -4.586154e-07
1.736175e-07 3.063693e-07 -2.024481e-07 1.661551e-07 1.294416e-07 1.082580e-07
-2.514199e-07 9.343539e-07 -4.250965e-07 -6.830108e-08 2.112602e-07 -7.543035e-08
5.693228e-07 -6.433748e-09 -2.957844e-07 4.396352e-07 -8.053316e-07 -7.194772e-07
7.989790e-07 8.973455e-08 -8.913052e-07 6.131814e-07 -6.100124e-07 -5.385344e-07
5.612437e-07 3.202757e-08 -7.505399e-07 4.430904e-07 -8.088406e-07 -6.580035e-07
1.058329e-06 -1.581186e-07 -5.483721e-07 4.132153e-07 -6.513762e-07 -2.866938e-07
1.094369e-06 -1.208015e-07 -8.270454e-07 5.901060e-07 -8.234331e-07 -7.189592e-07
1.156869e-06 -2.640699e-08 -8.240859e-07 1.086052e-06 -5.400890e-07 -3.764465e-07
4.218744e-07 5.607982e-08 -1.560814e-07 -3.923172e-08 -5.451154e-09 7.828605e-09
3.830357e-07 7.770248e-08 -1.591227e-07 -4.034267e-08 -1.283393e-08 1.771481e-08
-3.390326e-07 8.854653e-07 -5.714501e-07 3.509652e-08 -2.657732e-07 -8.110071e-08
4.059360e-07 6.063103e-08 -1.508682e-07 -2.513137e-08 -5.894544e-09 7.737157e-09
5.872516e-07 2.331131e-06 7.088943e-07 3.724767e-06 -7.533915e-08 -2.806154e-07
3.798130e-07 8.050207e-08 -1.457687e-07 -2.284645e-08 -1.033886e-08 4.666354e-09
3.820911e-07 8.714252e-08 -1.572009e-07 -2.936611e-08 -9.543990e-09 1.077994e-08
3.866968e-07 7.156498e-08 -1.559278e-07 -3.869586e-08 -1.145843e-08 1.355454e-08
3.797901e-07 7.811891e-08 -1.496296e-07 -2.582538e-08 -6.112298e-09 6.281865e-09
2.249339e-06 -7.219457e-07 -1.317620e-06 2.871368e-07 -3.743809e-07 -1.412550e-07
2.918979e-06 -7.281603e-07 -1.552363e-06 3.300275e-07 -2.074103e-07 5.733007e-08
3.048655e-06 -8.254370e-07 -1.516666e-06 1.480359e-07 -6.361686e-08 -1.528993e-08
3.600767e-07 1.151971e-07 -1.663712e-07 -2.747902e-08 -7.688244e-09 1.470491e-08
3.416627e-07 1.267932e-07 -1.749957e-07 -2.668264e-08 -1.230797e-08 1.746559e-08
3.639937e-07 9.839003e-08 -1.663921e-07 -3.493486e-08 -1.139014e-08 1.545848e-08
3.973669e-07 5.700982e-08 -1.665735e-07 -3.708822e-08 -5.950602e-09 8.307517e-09
4.135796e-07 6.193847e-08 -1.556581e-07 -2.782910e-08 -5.616431e-09 9.169465e-09
3.980700e-07 5.712570e-08 -1.538557e-07 -3.647083e-08 -4.252503e-09 1.174546e-08
3.971293e-07 5.445636e-08 -1.536440e-07 -1.834741e-08 -4.865268e-10 2.704660e-09
3.951328e-07 6.486908e-08 -1.536193e-07 -2.123696e-08 -1.287469e-09 3.248110e-09
3.113375e-07 1.494537e-07 -1.826010e-07 6.161806e-08 2.897505e-09 5.982471e-09
3.024260e-07 1.512240e-07 -1.652012e-07 6.098100e-08 4.531882e-09 4.245925e-09
3.360903e-06 -1.473181e-06 2.051697e-06 3.366723e-06 -3.095258e-07 -7.155897e-07
2.978147e-07 1.600377e-07 -1.571289e-07 3.456256e-08 6.383511e-09 1.002089e-09
3.003336e-07 1.689805e-07 -1.697101e-07 4.410779e-08 5.024002e-09 5.528470e-09
3.003358e-07 1.602002e-07 -1.608249e-07 3.753294e-08 2.356027e-09 1.044132e-08
2.857731e-07 9.497856e-07 -8.918501e-07 -1.023257e-06 -7.646326e-08 9.526113e-08
-7.978094e-08 7.676669e-07 -4.488596e-07 -1.764843e-07 9.636766e-08 -9.043738e-08
-1.122057e-07 7.739542e-07 -4.860688e-07 -7.152066e-08 1.130314e-08 -2.084735e-08
-7.209493e-08 7.256677e-07 -4.431554e-07 -1.036854e-07 1.731209e-08 -2.508854e-08
1.716703e-07 3.174880e-07 -3.818617e-07 -8.127203e-08 4.517515e-07 -1.321331e-07
1.109621e-07 6.107387e-07 -4.511744e-07 -3.524796e-07 4.541920e-07 -2.387137e-07
1.620856e-07 5.806260e-07 -6.354004e-07 -2.788167e-07 4.448285e-07 -2.357740e-07
1.650948e-07 4.434298e-07 -5.260908e-07 -1.904799e-07 4.141246e-07 -1.327758e-07
4.237315e-07 5.443587e-08 -1.607951e-07 -3.963768e-08 -1.417981e-08 1.470010e-08
4.233739e-07 5.175846e-08 -1.726124e-07 -4.367627e-08 -6.731187e-09 1.878975e-08
4.143694e-07 3.676733e-08 -1.588955e-07 -2.766908e-08 -4.024770e-09 5.348483e-09
4.409543e-07 3.246184e-08 -1.522483e-07 -2.766247e-08 -6.973002e-09 9.251152e-09
4.614445e-09 4.781022e-07 -3.014026e-07 6.760405e-08 8.271243e-08 6.941183e-08
-3.903157e-08 4.397755e-07 -2.383532e-07 1.102794e-07 1.142707e-07 8.236265e-08
2.551076e-08 4.467318e-07 -3.098552e-07 1.160167e-07 1.092474e-07 8.458804e-08
5.238955e-08 5.362370e-07 -3.344767e-07 1.720689e-07 1.229932e-07 8.178851e-08
5.491038e-07 5.586810e-07 -7.519335e-07 3.615937e-07 -5.641685e-07 -2.416255e-07
5.625678e-07 7.529713e-07 -9.311121e-07 4.237446e-07 -3.373510e-07 -1.156928e-07
2.893948e-07 5.609271e-07 -7.505946e-07 4.070375e-07 -5.668425e-07 -3.423632e-07
4.178410e-06 -3.450678e-06 5.354805e-06 3.697862e-06 2.139600e-07 -1.043399e-06
4.572053e-06 -3.423143e-06 2.379637e-06 3.154290e-06 6.240963e-07 5.504559e-07
3.646501e-06 -3.471968e-06 9.215343e-06 4.132573e-06 -3.762283e-07 9.640238e-07
3.777479e-06 -3.445971e-06 6.316610e-06 3.619197e-06 6.706489e-08 2.439882e-06
-4.433864e-08 5.708067e-07 -3.231605e-07 -6.170907e-08 1.343317e-07 -3.095587e-08
-7.234268e-08 5.385321e-07 -2.412738e-07 -1.779363e-08 1.141201e-07 -6.510510e-08
-7.622473e-08 6.038505e-07 -2.973439e-07 -4.892424e-08 7.790761e-08 -5.123693e-08
-1.020346e-07 5.509588e-07 -2.003222e-07 -1.296701e-08 5.277377e-08 -5.262899e-08
2.260350e-06 -2.811657e-07 -1.414279e-07 2.662192e-06 2.012083e-07 -1.132234e-07
-8.920183e-08 5.204990e-07 -2.171308e-07 -2.700503e-08 6.709639e-08 -2.252287e-08
1.848335e-07 2.762104e-07 -1.781666e-07 7.725736e-08 4.918762e-08 4.807653e-08
1.853876e-07 2.489722e-07 -1.652877e-07 6.314724e-08 4.223245e-08 3.373864e-08
2.252242e-07 2.256240e-07 -1.661119e-07 5.173725e-08 3.069150e-08 2.288627e-08
1.861712e-07 2.926189e-07 -1.605861e-07 5.661894e-08 2.598244e-08 3.565921e-08
2.239162e-07 2.444984e-07 -1.564794e-07 4.615587e-08 1.691609e-08 2.584328e-08
7.056457e-08 5.264257e-07 -3.682955e-07 1.833486e-07 1.782010e-07 1.111695e-07
4.543298e-08 4.255078e-07 -2.025936e-07 1.640427e-07 1.565753e-07 1.052380e-07
1.558637e-09 5.599681e-07 -3.036015e-07 1.808416e-07 1.940870e-07 1.340773e-07
6.060436e-08 4.200947e-07 -2.767522e-07 1.240380e-07 1.136645e-07 1.188829e-07
7.566617e-08 4.005565e-07 -1.992334e-07 1.261751e-07 1.365116e-07 1.049636e-07
1.515961e-07 2.783296e-07 -1.844829e-07 5.650487e-08 4.917027e-08 4.774851e-08
5.066658e-07 -5.748216e-08 -1.727202e-07 6.199364e-08 1.743970e-08 7.530101e-08
5.387310e-07 -6.861620e-08 -2.105220e-07 4.168764e-08 1.207098e-08 4.680685e-08
5.687536e-07 -8.627760e-08 -2.207066e-07 4.477041e-08 2.430506e-08 6.361382e-08
5.769977e-07 -6.687785e-08 -2.118845e-07 5.957528e-08 1.118911e-08 5.397678e-08
1.125012e-07 8.353897e-07 -5.642885e-07 -3.239896e-07 1.133024e-07 -4.954547e-08
8.476322e-08 7.335314e-07 -5.468588e-07 -2.417300e-07 1.248978e-07 -3.197474e-08
8.833493e-08 8.248051e-07 -6.326684e-07 -3.070145e-07 8.645037e-08 5.233778e-10
1.104653e-07 8.343601e-07 -7.740106e-07 -3.215769e-07 9.822108e-08 -2.056639e-08
2.689431e-06 -1.473181e-06 4.115089e-06 3.723681e-06 -9.214675e-08 7.740998e-07
3.102703e-08 8.698056e-07 -5.959309e-07 -3.015134e-07 1.496659e-07 -7.691112e-08
1.541087e-07 7.277305e-07 -6.293912e-07 -3.201209e-07 2.033560e-07 -7.344132e-08
-4.731192e-09 7.942302e-07 -5.642954e-07 -2.456797e-07 1.240595e-07 -7.287097e-08
-5.668539e-07 2.124527e-06 -1.022877e-06 -8.719646e-07 -1.881308e-07 5.949427e-08
4.545108e-08 7.124784e-07 -5.548207e-07 2.315237e-07 -2.296039e-07 -1.260681e-07
1.668503e-07 8.293258e-07 -7.341850e-07 3.504997e-07 -2.028587e-07 -8.559316e-08
-5.150199e-08 7.619645e-07 -7.060404e-07 2.084235e-07 -2.160880e-07 -1.379844e-07
3.697857e-08 7.475290e-07 -7.014987e-07 2.179340e-07 -1.950141e-07 -8.853290e-08
1.165874e-06 -2.787200e-07 -5.934771e-07 -2.491984e-07 -2.602165e-08 1.898878e-07
1.038280e-06 -1.642439e-07 -5.352564e-07 -2.187259e-07 -5.772475e-08 1.678424e-07
1.069241e-06 -2.776963e-07 -5.341769e-07 -2.202073e-07 -4.633626e-08 1.762893e-07
2.068648e-07 3.164527e-07 -2.581314e-07 1.061434e-07 3.663527e-08 2.892628e-08
1.242787e-06 -2.789789e-07 -6.172912e-07 -2.600648e-07 -3.878709e-08 1.011677e-07
-1.850757e-06 3.456764e-06 -7.051458e-07 -6.033823e-08 -3.647489e-07 -5.610052e-08
-1.463779e-07 4.901373e-07 -2.355265e-07 -1.313910e-08 1.504227e-07 -7.988329e-08
-1.424925e-07 6.817514e-07 -3.059720e-07 -3.709936e-08 8.561692e-08 -8.214067e-08
-1.375857e-07 6.973040e-07 -3.454641e-07 -8.572157e-08 1.167102e-07 -8.807183e-08
3.061209e-07 2.011209e-07 -2.731835e-07 -8.526114e-08 -2.148097e-08 2.714375e-08
3.304790e-07 1.958207e-07 -2.581453e-07 -9.001858e-08 -1.457631e-09 1.669286e-08
3.474244e-07 2.102521e-07 -3.290622e-07 -1.620860e-07 -3.145977e-09 1.885838e-08
3.216623e-07 2.317704e-07 -2.675307e-07 -1.638256e-07 -3.405222e-08 3.712580e-08
3.060694e-07 2.050332e-07 -2.609862e-07 -8.566898e-08 -7.842220e-09 2.754467e-08
3.233729e-07 2.257262e-07 -3.262331e-07 -1.626989e-07 -1.200492e-08 2.655723e-08
4.019439e-07 6.042307e-08 -1.442262e-07 -1.978598e-08 -1.180847e-08 7.032671e-09
3.833589e-07 7.479373e-08 -1.627866e-07 -3.859770e-08 -8.241254e-09 1.192780e-08
3.831378e-07 7.734429e-08 -1.515038e-07 -3.991080e-08 -2.699382e-09 9.899665e-09
4.063814e-07 6.416741e-08 -1.802493e-07 -5.250323e-08 -1.191376e-08 1.894624e-08
4.104735e-07 7.496291e-08 -1.664206e-07 -5.308095e-08 -7.660858e-09 9.938141e-09
3.995025e-07 7.379719e-08 -1.490792e-07 -3.144569e-08 -6.973335e-09 1.066828e-08
1.101796e-07 7.169386e-07 -6.807766e-07 1.487996e-07 -4.394007e-08 -5.242341e-09
4.001148e-07 7.204908e-08 -1.647625e-07 -3.059816e-08 -2.579003e-10 1.062943e-08
2.601557e-07 5.779297e-07 -7.082333e-07 1.960901e-07 -3.157088e-07 -1.239547e-07
4.055528e-07 5.583589e-07 -6.926611e-07 1.868096e-07 -3.278492e-07 -7.088300e-08
4.227443e-07 5.628569e-07 -7.025953e-07 1.540454e-07 -3.677474e-07 -6.412212e-08
3.094599e-07 1.397925e-07 -1.397399e-07 1.014546e-08 8.586117e-10 1.833810e-10