# vtk DataFile Version 2.0
Simplicial Mesh Example
ASCII
DATASET UNSTRUCTURED_GRID
POINTS 9235 double
3.320296e+05 -1.479713e+05 -5.000000e+04
3.230490e+05 -1.698867e+05 -2.450301e+04
3.473967e+05 -1.610091e+05 -2.499295e+04
3.230191e+05 -1.453594e+05 -2.376374e+04
3.000000e+05 -1.659466e+05 0.000000e+00
3.323841e+05 -1.500853e+05 0.000000e+00
3.000000e+05 -1.298234e+05 -5.000000e+04
3.211390e+05 -1.219510e+05 -2.456343e+04
3.000000e+05 -1.488492e+05 -2.774542e+04
3.000000e+05 -1.638587e+05 -5.000000e+04
-3.410447e+05 -3.313729e+05 -5.000000e+04
-3.562722e+05 -3.568159e+05 -2.596779e+04
-3.399470e+05 -3.173800e+05 -2.518749e+04
-3.709613e+05 -3.293268e+05 -2.460153e+04
8.320003e+04 -3.000000e+05 -2.235380e+04
1.000000e+05 -3.000000e+05 0.000000e+00
8.376766e+04 -3.323560e+05 0.000000e+00
1.022059e+05 -3.232166e+05 -2.436054e+04
9.218191e+04 -3.479439e+05 -2.506288e+04
7.450652e+04 -3.246631e+05 -2.586070e+04
8.376391e+04 -3.320935e+05 -5.000000e+04
1.000000e+05 -3.000000e+05 -5.000000e+04
6.666667e+04 -3.000000e+05 -5.000000e+04
4.909161e+04 -3.211949e+05 -2.159753e+04
-3.000000e+05 -2.284991e+05 -5.000000e+04
-3.319474e+05 -2.124896e+05 -5.000000e+04
-3.218152e+05 -2.373449e+05 -2.716838e+04
-3.186433e+05 -2.130922e+05 -3.089857e+04
3.680760e+05 -6.909438e+04 0.000000e+00
3.760404e+05 -8.535114e+04 -2.432411e+04
3.481610e+05 -6.095230e+04 -2.499963e+04
3.758419e+05 -5.047205e+04 -2.434620e+04
-3.000000e+05 -2.326501e+05 0.000000e+00
-3.000000e+05 -2.125115e+05 -2.265069e+04
-3.000000e+05 -1.989752e+05 0.000000e+00
-3.227151e+05 -1.919352e+05 -2.817559e+04
-3.324295e+05 -2.170264e+05 0.000000e+00
-2.490803e+05 -3.000000e+05 -2.221961e+04
-2.515393e+05 -3.324613e+05 0.000000e+00
-2.666667e+05 -3.000000e+05 0.000000e+00
-2.738346e+05 -3.252416e+05 -2.491374e+04
3.676956e+05 -6.866168e+04 -5.000000e+04
4.000000e+05 -8.695652e+04 -5.000000e+04
4.000000e+05 -5.217391e+04 -5.000000e+04
4.000000e+05 -6.957979e+04 -2.232138e+04
-2.333333e+05 -3.000000e+05 -5.000000e+04
-2.666667e+05 -3.000000e+05 -5.000000e+04
-2.512538e+05 -3.321783e+05 -5.000000e+04
-2.508504e+05 -3.238766e+05 -2.894778e+04
-2.288410e+05 -3.237531e+05 -2.554757e+04
-2.332968e+05 -3.501801e+05 -2.524712e+04
-1.499969e+05 -3.000000e+05 -2.764283e+04
-1.666667e+05 -3.000000e+05 0.000000e+00
-1.716166e+05 -3.233333e+05 -2.542063e+04
-1.478789e+05 -3.226382e+05 -2.533861e+04
-1.507909e+05 -3.323848e+05 0.000000e+00
-1.630826e+05 -3.498393e+05 -2.503121e+04
-1.507405e+05 -3.321164e+05 -5.000000e+04
-1.194653e+05 -3.220088e+05 -2.222167e+04
-1.333333e+05 -3.000000e+05 -5.000000e+04
-1.666667e+05 -3.000000e+05 -5.000000e+04
-1.043477e+05 4.000000e+05 -2.232281e+04
-1.038755e+05 3.680862e+05 0.000000e+00
-1.217391e+05 4.000000e+05 0.000000e+00
-1.224620e+05 3.788441e+05 -2.436654e+04
-1.217391e+05 4.000000e+05 -5.000000e+04
-9.211340e+04 3.779330e+05 -2.656844e+04
-6.923876e+04 -3.678233e+05 -5.000000e+04
-8.695652e+04 -4.000000e+05 -5.000000e+04
-5.217391e+04 -4.000000e+05 -5.000000e+04
-6.956714e+04 -4.000000e+05 -2.232106e+04
-1.249943e+05 3.519836e+05 -2.486759e+04
-1.038072e+05 3.678091e+05 -5.000000e+04
-1.739130e+04 -4.000000e+05 -5.000000e+04
-3.460350e+04 -3.678269e+05 -5.000000e+04
-3.478387e+04 -4.000000e+05 -2.232106e+04
-1.651509e+04 -3.754742e+05 -2.442335e+04
-8.376345e+04 3.320934e+05 -5.000000e+04
-1.000000e+05 3.000000e+05 -5.000000e+04
-8.343627e+04 3.000000e+05 -2.764981e+04
-1.026187e+05 3.239050e+05 -2.445309e+04
-6.666667e+04 3.000000e+05 -5.000000e+04
-5.147032e+04 3.217565e+05 -2.303829e+04
4.000000e+05 3.304348e+05 -5.000000e+04
4.000000e+05 3.130499e+05 -2.232112e+04
4.000000e+05 3.478935e+05 -2.235349e+04
3.674886e+05 3.295924e+05 -2.467361e+04
-6.033593e+04 3.477011e+05 -2.439908e+04
-7.701272e+04 3.234532e+05 -1.862781e+04
-8.379954e+04 3.323534e+05 0.000000e+00
-9.028036e+04 3.505284e+05 -2.483995e+04
3.000000e+05 -8.185378e+04 -2.769067e+04
3.000000e+05 -6.540655e+04 0.000000e+00
3.219834e+05 -9.262369e+04 -2.356665e+04
3.212381e+05 -6.353317e+04 -2.568389e+04
3.320030e+05 -7.972620e+04 -5.000000e+04
3.000000e+05 -4.823862e+04 -2.768751e+04
3.000000e+05 -6.175270e+04 -5.000000e+04
3.319980e+05 -4.560520e+04 -5.000000e+04
1.000000e+05 3.000000e+05 0.000000e+00
1.285319e+05 3.220153e+05 -2.330358e+04
1.166485e+05 3.000000e+05 -2.764255e+04
9.924408e+04 3.212454e+05 -2.557582e+04
1.172876e+05 3.321041e+05 -5.000000e+04
1.000000e+05 3.000000e+05 -5.000000e+04
1.172617e+05 3.323725e+05 0.000000e+00
1.739130e+04 -4.000000e+05 -5.000000e+04
3.478141e+04 -4.000000e+05 -2.232106e+04
3.460470e+04 -3.678270e+05 -5.000000e+04
1.646691e+04 -3.753828e+05 -2.432691e+04
9.656745e+04 3.481700e+05 -2.494853e+04
3.680819e+05 1.387484e+05 0.000000e+00
3.789347e+05 1.274418e+05 -2.657151e+04
3.531101e+05 1.597755e+05 -2.518599e+04
3.792098e+05 1.574583e+05 -2.441774e+04
4.000000e+05 1.565217e+05 0.000000e+00
4.000000e+05 1.391303e+05 -2.231930e+04
6.857177e+00 3.678309e+05 -5.000000e+04
1.673721e+04 3.320840e+05 -5.000000e+04
3.460423e+04 3.678269e+05 -5.000000e+04
2.880282e+04 3.508021e+05 -2.489257e+04
-3.461370e+04 -3.681008e+05 0.000000e+00
-1.739130e+04 -4.000000e+05 0.000000e+00
-1.676283e+04 3.320851e+05 -5.000000e+04
1.537478e+03 3.361402e+05 -2.528450e+04
3.679848e+05 1.390962e+05 -5.000000e+04
-4.999978e+04 -3.000000e+05 -2.235748e+04
-1.678469e+04 -3.000000e+05 -2.764887e+04
-1.676668e+04 -3.323444e+05 0.000000e+00
-5.499684e+04 -3.228669e+05 -2.776930e+04
4.000000e+05 1.565217e+05 -5.000000e+04
3.676239e+05 -2.421373e+05 -5.000000e+04
4.000000e+05 -2.434785e+05 -2.767896e+04
3.747803e+05 -2.281317e+05 -2.552755e+04
3.782485e+05 -2.607848e+05 -2.580555e+04
-3.128530e+05 -3.661813e+05 -5.000000e+04
-2.847026e+05 -3.321560e+05 -5.000000e+04
-3.161470e+05 -3.277621e+05 -5.000000e+04
-3.120399e+05 -3.401367e+05 -2.465985e+04
3.512666e+05 -2.655302e+05 -2.501422e+04
3.679951e+05 -2.423193e+05 0.000000e+00
4.000000e+05 -2.608696e+05 0.000000e+00
-1.455192e-10 3.000000e+05 -5.000000e+04
-1.665884e+04 3.000000e+05 -2.764283e+04
1.678621e+04 3.000000e+05 -2.764891e+04
3.000000e+05 -2.490234e+05 -2.248769e+04
3.324577e+05 -2.511100e+05 0.000000e+00
3.238293e+05 -2.640014e+05 -2.441041e+04
3.212088e+05 -2.325011e+05 -2.423874e+04
3.320637e+05 -2.503757e+05 -5.000000e+04
3.463683e+05 -2.303855e+05 -2.500317e+04
-3.698054e+05 -3.472763e+05 0.000000e+00
-3.663396e+05 -3.129808e+05 0.000000e+00
-3.315797e+05 -3.410949e+05 0.000000e+00
3.000000e+05 -2.319293e+05 -5.000000e+04
1.730839e+05 3.678997e+05 -5.000000e+04
1.571942e+05 3.749461e+05 -2.554585e+04
1.947972e+05 3.532715e+05 -2.489915e+04
1.912984e+05 3.786912e+05 -2.581857e+04
1.913043e+05 4.000000e+05 -5.000000e+04
1.739026e+05 4.000000e+05 -2.767885e+04
3.704421e+05 3.503181e+05 -5.000000e+04
-3.674293e+05 -2.066073e+05 -5.000000e+04
-3.494471e+05 -2.292202e+05 -2.526698e+04
-3.497009e+05 -1.977915e+05 -2.539897e+04
1.731007e+05 3.680556e+05 0.000000e+00
1.913043e+05 4.000000e+05 0.000000e+00
4.000000e+05 2.956522e+05 0.000000e+00
4.000000e+05 2.782599e+05 -2.232106e+04
3.700232e+05 2.952130e+05 -2.459328e+04
-2.177434e+05 -3.321524e+05 -5.000000e+04
-2.166738e+05 -3.000000e+05 -2.767207e+04
-2.002275e+05 -3.215730e+05 -2.585451e+04
-1.985707e+05 -3.482959e+05 -2.510962e+04
-2.179099e+05 -3.324288e+05 0.000000e+00
-2.000000e+05 -3.000000e+05 0.000000e+00
-4.000000e+05 -1.739130e+04 -5.000000e+04
-4.000000e+05 1.362271e+00 -2.232106e+04
-4.000000e+05 -3.478139e+04 -2.232106e+04
-3.764375e+05 -1.615686e+04 -2.441389e+04
-1.172644e+05 3.321057e+05 -5.000000e+04
-1.165333e+05 3.000000e+05 -2.235380e+04
-1.172626e+05 3.323723e+05 0.000000e+00
-1.351151e+05 3.242796e+05 -2.432698e+04
-1.000000e+05 3.000000e+05 0.000000e+00
3.000000e+05 -1.154172e+05 -2.769106e+04
3.000000e+05 -9.891990e+04 0.000000e+00
3.323674e+05 -1.164140e+05 0.000000e+00
3.494970e+05 -9.661460e+04 -2.478315e+04
3.320115e+05 -1.138445e+05 -5.000000e+04
3.000000e+05 -9.578803e+04 -5.000000e+04
-3.683842e+05 -3.117444e+05 -5.000000e+04
-3.704229e+05 -3.502942e+05 -5.000000e+04
-3.000000e+05 -1.676695e+04 -5.000000e+04
-3.000000e+05 -3.162526e+04 0.000000e+00
-3.000000e+05 1.537267e+03 0.000000e+00
-3.215156e+05 -1.436666e+04 -2.547447e+04
-2.627419e+05 -3.499829e+05 -2.513924e+04
-3.324526e+05 -2.845988e+05 0.000000e+00
-3.280582e+05 -3.160567e+05 0.000000e+00
-2.333333e+05 -3.000000e+05 0.000000e+00
-1.731007e+05 -3.680556e+05 0.000000e+00
-1.545447e+05 -3.761882e+05 -2.496605e+04
-1.738957e+05 -4.000000e+05 -2.758994e+04
-1.892592e+05 -3.758330e+05 -2.503546e+04
-2.077253e+05 -3.680332e+05 0.000000e+00
-2.238681e+05 -3.761511e+05 -2.500739e+04
-1.913043e+05 -4.000000e+05 -5.000000e+04
-2.086560e+05 -4.000000e+05 -2.240978e+04
-1.730589e+05 -3.677722e+05 -5.000000e+04
6.957979e+04 4.000000e+05 -2.232138e+04
5.217391e+04 4.000000e+05 0.000000e+00
3.478536e+04 4.000000e+05 -2.232108e+04
5.076709e+04 3.763881e+05 -2.432357e+04
5.217391e+04 4.000000e+05 -5.000000e+04
1.674987e+04 3.323474e+05 0.000000e+00
3.500461e+04 3.242904e+05 -2.486949e+04
3.461320e+04 3.681000e+05 0.000000e+00
4.999984e+04 3.000000e+05 -2.235747e+04
3.333333e+04 3.000000e+05 0.000000e+00
1.624297e+04 3.760050e+05 -2.438535e+04
-3.680268e+05 2.424010e+05 0.000000e+00
-3.501061e+05 2.289790e+05 -2.510660e+04
-3.680500e+05 2.077851e+05 0.000000e+00
-3.762767e+05 2.231686e+05 -2.569080e+04
6.044606e+04 3.500124e+05 -2.491520e+04
-1.731195e+05 3.680519e+05 0.000000e+00
-1.545405e+05 3.762789e+05 -2.429555e+04
-1.611352e+05 3.500581e+05 -2.482426e+04
-1.910310e+05 3.748826e+05 -2.441742e+04
-1.384382e+05 3.677954e+05 -5.000000e+04
-4.000000e+05 2.260870e+05 0.000000e+00
-4.000000e+05 2.086964e+05 -2.767894e+04
-1.565217e+05 4.000000e+05 -5.000000e+04
-1.391303e+05 4.000000e+05 -2.231930e+04
-1.739120e+05 4.000000e+05 -2.232105e+04
-2.883046e+05 -3.320639e+05 0.000000e+00
-3.323717e+05 -1.156481e+05 0.000000e+00
-3.489067e+05 -1.010526e+05 -2.439261e+04
-3.250615e+05 -9.110468e+04 -2.328549e+04
-3.294786e+05 -1.230635e+05 -2.464286e+04
[...]
CELL_DATA 35
SCALARS total_strain double 6
LOOKUP_TABLE default
2.318570e-06 1.631332e-06 9.533445e-06 -2.023658e-06 -3.868739e-05 -3.386513e-05
1.871046e-06 1.067446e-06 1.011258e-05 -2.763152e-07 -3.469325e-05 -3.426692e-05
-1.034134e-05 -4.973896e-06 5.063601e-05 1.254372e-05 2.040907e-05 -1.830147e-05
1.071284e-06 -6.573469e-07 3.410334e-05 -5.766134e-07 5.290437e-05 -1.907170e-05
-9.276014e-08 -1.643268e-05 4.811736e-05 -3.606600e-06 8.662984e-06 -5.640222e-05
-9.147291e-07 2.067066e-06 3.734261e-05 -6.569857e-07 -1.213004e-05 6.507008e-05
-2.171240e-05 -1.405383e-05 6.987512e-05 -1.893972e-06 1.939723e-05 2.851206e-05
-6.555786e-06 -9.710990e-06 6.222615e-05 -1.184281e-05 1.548440e-05 2.823925e-05
-7.471827e-06 -1.094593e-05 5.196517e-05 -1.090516e-05 -2.007625e-05 -1.942703e-05
-4.582004e-06 -1.216510e-05 5.625494e-05 -9.784480e-06 -2.666521e-05 4.715711e-05
3.715670e-06 3.663523e-06 2.454041e-05 5.206490e-07 -3.299999e-06 2.263737e-06
-1.206538e-05 -2.585499e-06 4.783343e-05 -6.028384e-06 -4.633245e-05 2.363770e-05
2.428151e-06 3.542765e-06 2.399111e-05 1.198274e-06 -2.858690e-06 -1.848044e-06
2.912546e-06 2.573622e-06 2.229630e-05 1.456722e-06 -3.705858e-05 3.255525e-05
-2.180118e-05 -1.832398e-05 7.423589e-05 9.433500e-07 -1.975604e-05 2.897825e-05
2.057559e-06 1.186129e-06 3.676333e-05 -1.669145e-06 2.514197e-05 4.274256e-05
-1.104626e-05 -4.156389e-06 4.961733e-05 9.296943e-06 2.897071e-05 4.699573e-05
1.853643e-06 3.944955e-06 1.726457e-05 1.391628e-06 3.378930e-05 -2.536227e-05
-1.968019e-05 -2.159090e-07 5.750153e-05 -8.751961e-08 5.652750e-05 -3.439570e-06
-6.530365e-06 -9.933058e-06 5.742949e-05 1.232626e-05 -2.428210e-05 2.102441e-05
-1.951321e-05 -1.917638e-05 7.831612e-05 1.882392e-07 3.378047e-05 -5.976694e-06
5.616574e-07 1.384033e-06 3.124634e-05 1.806137e-07 -1.089458e-05 -6.296248e-05
-1.756064e-05 -2.091983e-05 6.962137e-05 -8.650798e-07 -3.046547e-05 -9.682823e-06
-1.526701e-05 -1.340426e-06 4.505439e-05 5.837584e-06 -5.166768e-05 -1.673303e-05
1.491344e-06 -6.739052e-07 3.227704e-05 -6.172067e-07 6.071118e-05 1.822235e-05
-1.933459e-05 -1.684557e-05 6.689966e-05 -2.304521e-06 -1.718218e-05 -2.696974e-05
-1.654411e-05 -1.806520e-05 6.741700e-05 2.098788e-06 2.835202e-05 -1.874832e-05
-5.869280e-06 -7.524364e-06 3.713896e-05 -8.846516e-06 4.010263e-05 -2.547711e-05
-4.440012e-06 -9.475192e-06 4.016099e-05 8.265059e-06 -2.735783e-05 -4.483652e-05
-1.579556e-05 -2.073753e-05 6.882169e-05 2.249326e-06 -2.971353e-05 1.733014e-05
-2.074369e-05 -1.747313e-05 7.237415e-05 1.042780e-06 3.535430e-06 -3.099648e-05
2.825070e-06 4.107443e-07 2.230258e-05 9.818873e-07 -3.922042e-05 3.227127e-05
-1.818105e-06 -6.127162e-08 4.508864e-05 1.012025e-06 3.031466e-05 5.039544e-05
4.332169e-07 3.373753e-06 1.640112e-05 2.726578e-07 2.597985e-05 -4.970067e-05
-7.710383e-07 4.354408e-07 3.345887e-05 -1.014616e-07 -6.210129e-05 -1.617520e-06
SCALARS stress double 6
LOOKUP_TABLE default
-1.572526e+09 -1.372598e+09 -1.531764e+09 -2.136982e+05 -4.085389e+06 -3.576157e+06
-1.572592e+09 -1.372677e+09 -1.531722e+09 -2.917889e+04 -3.663607e+06 -3.618587e+06
-1.830337e+09 -1.629770e+09 -1.783898e+09 1.324617e+06 2.155197e+06 -1.932635e+06
-1.571717e+09 -1.371900e+09 -1.528229e+09 -6.089038e+04 5.586702e+06 -2.013972e+06
-1.755610e+09 -1.557335e+09 -1.710519e+09 -3.808570e+05 9.148111e+05 -5.956075e+06
-1.571063e+09 -1.370748e+09 -1.527023e+09 -6.937769e+04 -1.280932e+06 6.871400e+06
-2.016501e+09 -1.815692e+09 -1.966829e+09 -2.000035e+05 2.048348e+06 3.010874e+06
-1.830095e+09 -1.630428e+09 -1.782832e+09 -1.250601e+06 1.635152e+06 2.982065e+06
-1.830086e+09 -1.630453e+09 -1.783810e+09 -1.151585e+06 -2.120052e+06 -2.051494e+06
-1.756487e+09 -1.557287e+09 -1.710062e+09 -1.033241e+06 -2.815846e+06 4.979790e+06
-1.644018e+09 -1.444023e+09 -1.601819e+09 5.498053e+04 -3.484799e+05 2.390506e+05
-1.758160e+09 -1.557159e+09 -1.711835e+09 -6.365974e+05 -4.892707e+06 2.496141e+06
-1.644242e+09 -1.444124e+09 -1.601964e+09 1.265377e+05 -3.018777e+05 -1.951535e+05
-1.571945e+09 -1.371981e+09 -1.529898e+09 1.538298e+05 -3.913387e+06 3.437834e+06
-2.015971e+09 -1.815604e+09 -1.965830e+09 9.961776e+04 -2.086238e+06 3.060103e+06
-1.572028e+09 -1.372120e+09 -1.528363e+09 -1.762617e+05 2.654993e+06 4.513615e+06
-1.757936e+09 -1.557209e+09 -1.711530e+09 9.817572e+05 3.059307e+06 4.962749e+06
-1.572173e+09 -1.371952e+09 -1.530546e+09 1.469559e+05 3.568150e+06 -2.678256e+06
-1.759391e+09 -1.557336e+09 -1.711241e+09 -9.242071e+03 5.969304e+06 -3.632186e+05
-1.829777e+09 -1.630136e+09 -1.783023e+09 1.301653e+06 -2.564190e+06 2.220178e+06
-2.016708e+09 -1.816672e+09 -1.966377e+09 1.987806e+04 3.567217e+06 -6.311389e+05
-1.570482e+09 -1.370395e+09 -1.527242e+09 1.907281e+04 -1.150468e+06 -6.648838e+06
-2.016134e+09 -1.816489e+09 -1.966928e+09 -9.135243e+04 -3.217153e+06 -1.022506e+06
-1.758588e+09 -1.557117e+09 -1.712218e+09 6.164488e+05 -5.456107e+06 -1.767008e+06
-1.572397e+09 -1.372625e+09 -1.529146e+09 -6.517703e+04 6.411100e+06 1.924281e+06
-2.015078e+09 -1.814815e+09 -1.965972e+09 -2.433574e+05 -1.814439e+06 -2.848004e+06
-2.016065e+09 -1.816226e+09 -1.967199e+09 2.216320e+05 2.993973e+06 -1.979823e+06
-1.757919e+09 -1.558094e+09 -1.713377e+09 -9.341921e+05 4.234838e+06 -2.690383e+06
-1.756281e+09 -1.556813e+09 -1.711571e+09 8.727902e+05 -2.888987e+06 -4.734737e+06
-2.016019e+09 -1.816541e+09 -1.967083e+09 2.375288e+05 -3.137749e+06 1.830063e+06
-2.015100e+09 -1.814755e+09 -1.965267e+09 1.101176e+05 3.733415e+05 -3.273228e+06
-1.572055e+09 -1.372310e+09 -1.529998e+09 1.036873e+05 -4.141676e+06 3.407846e+06
-1.570947e+09 -1.370762e+09 -1.525994e+09 1.068698e+05 3.201228e+06 5.321758e+06
-1.572451e+09 -1.372140e+09 -1.530765e+09 2.879266e+04 2.743472e+06 -5.248390e+06
-1.571888e+09 -1.371761e+09 -1.528274e+09 -1.071434e+04 -6.557896e+06 -1.708101e+05
