# vtk DataFile Version 2.0
Simplicial Mesh Example
ASCII
DATASET UNSTRUCTURED_GRID
POINTS 97 double
-1.460247e+05 -3.887590e+04 -5.000000e+03
-1.738435e+05 -5.126165e+04 -5.000000e+03
-1.384710e+05 -5.582752e+04 -1.571471e+04
-1.650004e+05 -5.240312e+04 -7.678677e+03
-1.561573e+05 -5.354459e+04 -1.035735e+04
-1.473141e+05 -5.468605e+04 -1.303603e+04
-1.637460e+05 -7.385600e+04 -1.928826e+04
-1.840501e+05 -1.032051e+05 -3.000000e+04
-1.182058e+05 -2.649016e+04 -5.000000e+03
-1.251605e+05 -2.958659e+04 -5.000000e+03
-1.232721e+05 -3.382450e+04 -7.678677e+03
-1.321152e+05 -3.268303e+04 -5.000000e+03
-1.302268e+05 -3.692093e+04 -7.678677e+03
-1.283384e+05 -4.115884e+04 -1.035735e+04
-1.390700e+05 -3.577947e+04 -5.000000e+03
-1.371815e+05 -4.001737e+04 -7.678677e+03
-1.441363e+05 -4.311381e+04 -7.678677e+03
-1.422478e+05 -4.735171e+04 -1.035735e+04
-1.352931e+05 -4.425528e+04 -1.035735e+04
-1.334047e+05 -4.849318e+04 -1.303603e+04
-1.403594e+05 -5.158962e+04 -1.303603e+04
-2.016624e+05 -6.364740e+04 -5.000000e+03
-1.662704e+05 -6.820741e+04 -1.571619e+04
-1.732251e+05 -7.130385e+04 -1.571619e+04
-1.687948e+05 -6.255882e+04 -1.214413e+04
-1.757495e+05 -6.565526e+04 -1.214413e+04
-1.827042e+05 -6.875170e+04 -1.214413e+04
-1.713191e+05 -5.691024e+04 -8.572065e+03
-1.782738e+05 -6.000667e+04 -8.572065e+03
-1.807982e+05 -5.435809e+04 -5.000000e+03
-1.877529e+05 -5.745452e+04 -5.000000e+03
-1.852286e+05 -6.310311e+04 -8.572065e+03
-1.921833e+05 -6.619955e+04 -8.572065e+03
-1.947076e+05 -6.055096e+04 -5.000000e+03
-1.284125e+05 -7.843358e+04 -3.000000e+04
-1.214577e+05 -7.533715e+04 -3.000000e+04
-1.145030e+05 -7.224071e+04 -3.000000e+04
-1.075483e+05 -6.914427e+04 -3.000000e+04
-1.005936e+05 -6.604784e+04 -3.000000e+04
-1.562313e+05 -9.081933e+04 -3.000000e+04
-1.372458e+05 -7.728919e+04 -2.732206e+04
-1.353672e+05 -8.153002e+04 -3.000000e+04
-1.460792e+05 -7.614479e+04 -2.464413e+04
-1.442005e+05 -8.038562e+04 -2.732206e+04
-1.423219e+05 -8.462646e+04 -3.000000e+04
-1.549126e+05 -7.500039e+04 -2.196619e+04
-1.530339e+05 -7.924123e+04 -2.464413e+04
-1.618673e+05 -7.809683e+04 -2.196619e+04
-1.599886e+05 -8.233766e+04 -2.464413e+04
-1.511553e+05 -8.348206e+04 -2.732206e+04
-1.492766e+05 -8.772289e+04 -3.000000e+04
-1.581100e+05 -8.657850e+04 -2.732206e+04
-1.770954e+05 -1.001086e+05 -3.000000e+04
-1.701407e+05 -9.701220e+04 -3.000000e+04
-1.631860e+05 -9.391577e+04 -3.000000e+04
-1.100630e+05 -6.349276e+04 -2.642868e+04
-1.195323e+05 -6.093768e+04 -2.285735e+04
-1.290017e+05 -5.838260e+04 -1.928603e+04
-1.447898e+05 -6.033464e+04 -1.660810e+04
-1.511085e+05 -6.484176e+04 -1.750148e+04
-1.574272e+05 -6.934888e+04 -1.839487e+04
-1.309271e+05 -7.278207e+04 -2.642868e+04
-1.334417e+05 -6.713055e+04 -2.285735e+04
-1.359564e+05 -6.147904e+04 -1.928603e+04
-1.492025e+05 -5.044815e+04 -1.035735e+04
-1.580457e+05 -4.930668e+04 -7.678677e+03
-1.668888e+05 -4.816521e+04 -5.000000e+03
-1.599341e+05 -4.506878e+04 -5.000000e+03
-1.510910e+05 -4.621024e+04 -7.678677e+03
-1.529794e+05 -4.197234e+04 -5.000000e+03
-1.789741e+05 -9.586781e+04 -2.732206e+04
-1.720194e+05 -9.277137e+04 -2.732206e+04
-1.738981e+05 -8.853054e+04 -2.464413e+04
-1.650647e+05 -8.967493e+04 -2.732206e+04
-1.669434e+05 -8.543410e+04 -2.464413e+04
-1.688220e+05 -8.119327e+04 -2.196619e+04
-1.536329e+05 -5.919317e+04 -1.392942e+04
-1.624760e+05 -5.805170e+04 -1.125074e+04
-1.599516e+05 -6.370029e+04 -1.482281e+04
-1.264870e+05 -6.403411e+04 -2.285735e+04
-1.239724e+05 -6.968563e+04 -2.642868e+04
-1.170177e+05 -6.658919e+04 -2.642868e+04
-1.138028e+05 -3.637958e+04 -1.125000e+04
-1.188691e+05 -4.371392e+04 -1.392868e+04
-1.093997e+05 -4.626900e+04 -1.750000e+04
-1.239354e+05 -5.104826e+04 -1.660735e+04
-1.144660e+05 -5.360334e+04 -2.017868e+04
-1.049967e+05 -5.615842e+04 -2.375000e+04
-1.485939e+05 -7.049327e+04 -2.107281e+04
-1.422751e+05 -6.598615e+04 -2.017942e+04
-1.397605e+05 -7.163767e+04 -2.375074e+04
-1.972593e+05 -7.353682e+04 -1.125000e+04
-1.928562e+05 -8.342624e+04 -1.750000e+04
-1.877802e+05 -7.608897e+04 -1.482206e+04
-1.884532e+05 -9.331566e+04 -2.375000e+04
-1.833772e+05 -8.597839e+04 -2.107206e+04
-1.783011e+05 -7.864112e+04 -1.839413e+04
CELLS 160 640
3  9 10 8
3  11 12 9
3  12 13 10
3  9 12 10
3  14 15 11
3  0 16 14
3  16 17 15
3  14 16 15
3  18 19 13
3  17 20 18
3  20 2 19
3  18 20 19
3  11 15 12
3  15 17 18
3  12 18 13
3  12 15 18
3  6 22 23
3  22 24 25
3  23 25 26
3  22 25 23
3  24 27 28
3  27 1 29
3  28 29 30
3  27 29 28
3  26 31 32
3  31 30 33
3  32 33 21
3  31 33 32
3  28 30 31
3  24 28 25
3  25 31 26
3  31 25 28
3  34 40 41
3  40 42 43
3  41 43 44
3  41 40 43
3  42 45 46
3  45 6 47
3  46 47 48
3  46 45 47
3  44 49 50
3  49 48 51
3  50 51 39
3  50 49 51
3  43 42 46
3  44 43 49
3  49 46 48
3  46 49 43
3  5 2 20
3  4 5 64
3  64 20 17
3  20 64 5
3  3 4 65
3  1 3 66
3  66 65 67
3  65 66 3
3  68 17 16
3  67 68 69
3  69 16 0
3  16 69 68
3  17 68 64
3  68 67 65
3  64 65 4
3  64 68 65
3  7 52 70
3  52 53 71
3  70 71 72
3  52 71 70
3  53 54 73
3  54 39 51
3  73 51 48
3  54 51 73
3  72 74 75
3  74 48 47
3  75 47 6
3  74 47 75
3  53 73 71
3  73 48 74
3  71 74 72
3  71 73 74
3  2 5 58
3  5 4 76
3  58 76 59
3  5 76 58
3  4 3 77
3  3 1 27
3  77 27 24
3  3 27 77
3  59 78 60
3  78 24 22
3  60 22 6
3  78 22 60
3  77 24 78
3  4 77 76
3  76 78 59
3  78 76 77
3  2 63 57
3  63 62 79
3  57 79 56
3  63 79 57
3  62 61 80
3  61 34 35
3  80 35 36
3  61 35 80
3  56 81 55
3  81 36 37
3  55 37 38
3  81 37 55
3  62 80 79
3  80 36 81
3  79 81 56
3  79 80 81
3  8 10 82
3  10 13 83
3  82 83 84
3  10 83 82
3  13 19 85
3  19 2 57
3  85 57 56
3  19 57 85
3  84 86 87
3  86 56 55
3  87 55 38
3  86 55 87
3  13 85 83
3  85 56 86
3  83 86 84
3  83 85 86
3  60 6 45
3  59 60 88
3  88 45 42
3  88 60 45
3  58 59 89
3  2 58 63
3  63 89 62
3  63 58 89
3  90 42 40
3  62 90 61
3  61 40 34
3  61 90 40
3  62 89 90
3  89 59 88
3  90 88 42
3  90 89 88
3  21 91 32
3  91 92 93
3  32 93 26
3  32 91 93
3  92 94 95
3  94 7 70
3  95 70 72
3  95 94 70
3  26 96 23
3  96 72 75
3  23 75 6
3  23 96 75
3  93 92 95
3  26 93 96
3  96 95 72
3  95 96 93
CELL_TYPES 160
5
5
5
5
5
5
5
5
5
5
5
5
5
5
5
5
5
5
5
5
5
5
5
5
5
5
5
5
5
5
5
5
5
5
5
5
5
5
5
5
5
5
5
5
5
5
5
5
5
5
5
5
5
5
5
5
5
5
5
5
5
5
5
5
5
5
5
5
5
5
5
5
5
5
5
5
5
5
5
5
5
5
5
5
5
5
5
5
5
5
5
5
5
5
5
5
5
5
5
5
5
5
5
5
5
5
5
5
5
5
5
5
5
5
5
5
5
5
5
5
5
5
5
5
5
5
5
5
5
5
5
5
5
5
5
5
5
5
5
5
5
5
5
5
5
5
5
5
5
5
5
5
5
5
5
5
5
5
5
5
POINT_DATA 97
VECTORS slip double
0.000000e+00 0.000000e+00 0.000000e+00
0.000000e+00 0.000000e+00 0.000000e+00
0.000000e+00 0.000000e+00 0.000000e+00
-8.051257e-01 -9.267875e-01 0.000000e+00
0.000000e+00 0.000000e+00 0.000000e+00
0.000000e+00 0.000000e+00 0.000000e+00
0.000000e+00 0.000000e+00 0.000000e+00
0.000000e+00 0.000000e+00 0.000000e+00
0.000000e+00 0.000000e+00 0.000000e+00
0.000000e+00 0.000000e+00 0.000000e+00
0.000000e+00 0.000000e+00 0.000000e+00
0.000000e+00 0.000000e+00 0.000000e+00
-7.615070e-01 -8.622835e-01 0.000000e+00
0.000000e+00 0.000000e+00 0.000000e+00
0.000000e+00 0.000000e+00 0.000000e+00
-1.020814e+00 -1.099075e+00 -5.421011e-17
-1.422965e+00 -1.619333e+00 0.000000e+00
0.000000e+00 0.000000e+00 0.000000e+00
0.000000e+00 0.000000e+00 0.000000e+00
0.000000e+00 0.000000e+00 0.000000e+00
0.000000e+00 0.000000e+00 0.000000e+00
0.000000e+00 0.000000e+00 0.000000e+00
0.000000e+00 0.000000e+00 0.000000e+00
0.000000e+00 0.000000e+00 0.000000e+00
0.000000e+00 0.000000e+00 0.000000e+00
0.000000e+00 0.000000e+00 0.000000e+00
0.000000e+00 0.000000e+00 0.000000e+00
-3.173073e-01 -3.689542e-01 0.000000e+00
-7.914216e-02 -7.524725e-02 0.000000e+00
0.000000e+00 0.000000e+00 0.000000e+00
0.000000e+00 0.000000e+00 0.000000e+00
-2.413438e-02 -2.529384e-02 0.000000e+00
0.000000e+00 0.000000e+00 0.000000e+00
0.000000e+00 0.000000e+00 0.000000e+00
0.000000e+00 0.000000e+00 0.000000e+00
0.000000e+00 0.000000e+00 0.000000e+00
0.000000e+00 0.000000e+00 0.000000e+00
0.000000e+00 0.000000e+00 0.000000e+00
0.000000e+00 0.000000e+00 0.000000e+00
0.000000e+00 0.000000e+00 0.000000e+00
0.000000e+00 0.000000e+00 0.000000e+00
0.000000e+00 0.000000e+00 0.000000e+00
0.000000e+00 0.000000e+00 0.000000e+00
0.000000e+00 0.000000e+00 0.000000e+00
0.000000e+00 0.000000e+00 0.000000e+00
0.000000e+00 0.000000e+00 0.000000e+00
0.000000e+00 0.000000e+00 0.000000e+00
0.000000e+00 0.000000e+00 0.000000e+00
0.000000e+00 0.000000e+00 0.000000e+00
0.000000e+00 0.000000e+00 0.000000e+00
0.000000e+00 0.000000e+00 0.000000e+00
0.000000e+00 0.000000e+00 0.000000e+00
0.000000e+00 0.000000e+00 0.000000e+00
0.000000e+00 0.000000e+00 0.000000e+00
0.000000e+00 0.000000e+00 0.000000e+00
0.000000e+00 0.000000e+00 0.000000e+00
0.000000e+00 0.000000e+00 0.000000e+00
0.000000e+00 0.000000e+00 0.000000e+00
0.000000e+00 0.000000e+00 0.000000e+00
0.000000e+00 0.000000e+00 0.000000e+00
0.000000e+00 0.000000e+00 0.000000e+00
0.000000e+00 0.000000e+00 0.000000e+00
0.000000e+00 0.000000e+00 0.000000e+00
0.000000e+00 0.000000e+00 0.000000e+00
0.000000e+00 0.000000e+00 0.000000e+00
-1.007159e+00 -1.091784e+00 0.000000e+00
0.000000e+00 0.000000e+00 0.000000e+00
0.000000e+00 0.000000e+00 0.000000e+00
-1.141547e+00 -1.195649e+00 1.084202e-16
0.000000e+00 0.000000e+00 0.000000e+00
0.000000e+00 0.000000e+00 0.000000e+00
0.000000e+00 0.000000e+00 0.000000e+00
0.000000e+00 0.000000e+00 0.000000e+00
0.000000e+00 0.000000e+00 0.000000e+00
0.000000e+00 0.000000e+00 0.000000e+00
0.000000e+00 0.000000e+00 0.000000e+00
0.000000e+00 0.000000e+00 0.000000e+00
0.000000e+00 0.000000e+00 0.000000e+00
0.000000e+00 0.000000e+00 0.000000e+00
0.000000e+00 0.000000e+00 0.000000e+00
0.000000e+00 0.000000e+00 0.000000e+00
0.000000e+00 0.000000e+00 0.000000e+00
0.000000e+00 0.000000e+00 0.000000e+00
0.000000e+00 0.000000e+00 0.000000e+00
0.000000e+00 0.000000e+00 0.000000e+00
0.000000e+00 0.000000e+00 0.000000e+00
0.000000e+00 0.000000e+00 0.000000e+00
0.000000e+00 0.000000e+00 0.000000e+00
0.000000e+00 0.000000e+00 0.000000e+00
0.000000e+00 0.000000e+00 0.000000e+00
0.000000e+00 0.000000e+00 0.000000e+00
0.000000e+00 0.000000e+00 0.000000e+00
0.000000e+00 0.000000e+00 0.000000e+00
0.000000e+00 0.000000e+00 0.000000e+00
0.000000e+00 0.000000e+00 0.000000e+00
0.000000e+00 0.000000e+00 0.000000e+00
0.000000e+00 0.000000e+00 0.000000e+00
VECTORS traction double
0.000000e+00 0.000000e+00 0.000000e+00
0.000000e+00 0.000000e+00 0.000000e+00
-6.058685e+07 -8.953984e+07 -3.757635e+08
-5.472132e+07 -8.001954e+07 -1.615683e+08
-6.326317e+07 -9.474852e+07 -2.348141e+08
-6.082318e+07 -8.962196e+07 -3.062092e+08
-6.042796e+07 -8.937241e+07 -4.649589e+08
0.000000e+00 0.000000e+00 0.000000e+00
0.000000e+00 0.000000e+00 0.000000e+00
0.000000e+00 0.000000e+00 0.000000e+00
-6.152175e+07 -9.013869e+07 -1.828945e+08
0.000000e+00 0.000000e+00 0.000000e+00
-5.248732e+07 -7.688209e+07 -1.551502e+08
-6.191624e+07 -9.246105e+07 -2.551772e+08
0.000000e+00 0.000000e+00 0.000000e+00
-5.271049e+07 -7.680885e+07 -1.552596e+08
-4.880791e+07 -7.077117e+07 -1.432827e+08
-6.354444e+07 -9.643209e+07 -2.159325e+08
-6.334420e+07 -9.489819e+07 -2.281191e+08
-6.060525e+07 -8.949928e+07 -3.272615e+08
-6.100080e+07 -8.978315e+07 -2.879952e+08
0.000000e+00 0.000000e+00 0.000000e+00
-6.045861e+07 -8.939139e+07 -3.682514e+08
-6.044499e+07 -8.937675e+07 -3.919775e+08
-6.111107e+07 -9.049673e+07 -2.717571e+08
-6.067319e+07 -8.967006e+07 -2.758853e+08
-6.050905e+07 -8.943622e+07 -2.956306e+08
-5.931975e+07 -8.706273e+07 -1.755844e+08
-6.049618e+07 -8.917292e+07 -1.795952e+08
0.000000e+00 0.000000e+00 0.000000e+00
0.000000e+00 0.000000e+00 0.000000e+00
-6.038970e+07 -8.921057e+07 -1.795476e+08
-6.046734e+07 -8.936638e+07 -1.992950e+08
0.000000e+00 0.000000e+00 0.000000e+00
0.000000e+00 0.000000e+00 0.000000e+00
0.000000e+00 0.000000e+00 0.000000e+00
0.000000e+00 0.000000e+00 0.000000e+00
0.000000e+00 0.000000e+00 0.000000e+00
0.000000e+00 0.000000e+00 0.000000e+00
0.000000e+00 0.000000e+00 0.000000e+00
-6.039603e+07 -8.932618e+07 -6.789580e+08
0.000000e+00 0.000000e+00 0.000000e+00
-6.040870e+07 -8.933605e+07 -6.067295e+08
-6.039742e+07 -8.933341e+07 -6.852636e+08
0.000000e+00 0.000000e+00 0.000000e+00
-6.042301e+07 -8.935177e+07 -5.345041e+08
-6.040416e+07 -8.933638e+07 -6.130414e+08
-6.041103e+07 -8.933609e+07 -5.528600e+08
-6.040420e+07 -8.933372e+07 -6.250836e+08
-6.039944e+07 -8.933658e+07 -6.852674e+08
0.000000e+00 0.000000e+00 0.000000e+00
-6.039738e+07 -8.932407e+07 -6.973063e+08
0.000000e+00 0.000000e+00 0.000000e+00
0.000000e+00 0.000000e+00 0.000000e+00
0.000000e+00 0.000000e+00 0.000000e+00
-6.039300e+07 -8.930909e+07 -6.414667e+08
-6.041525e+07 -8.933990e+07 -5.451405e+08
-6.047634e+07 -8.943465e+07 -4.488197e+08
-6.054561e+07 -8.949366e+07 -3.962271e+08
-6.049236e+07 -8.943545e+07 -4.203470e+08
-6.045934e+07 -8.940179e+07 -4.444782e+08
-6.039766e+07 -8.932753e+07 -6.651840e+08
-6.042102e+07 -8.934595e+07 -5.688601e+08
-6.046302e+07 -8.939357e+07 -4.725219e+08
-6.340070e+07 -9.523037e+07 -2.282454e+08
-5.269083e+07 -7.641243e+07 -1.546967e+08
0.000000e+00 0.000000e+00 0.000000e+00
0.000000e+00 0.000000e+00 0.000000e+00
-5.266617e+07 -7.661475e+07 -1.549511e+08
0.000000e+00 0.000000e+00 0.000000e+00
-6.038864e+07 -8.931268e+07 -6.579656e+08
-6.039345e+07 -8.931858e+07 -6.852711e+08
-6.039473e+07 -8.931467e+07 -5.857398e+08
-6.039465e+07 -8.932131e+07 -6.852677e+08
-6.040317e+07 -8.932296e+07 -6.130450e+08
-6.041561e+07 -8.933717e+07 -5.135126e+08
-6.070492e+07 -8.957901e+07 -3.239979e+08
-6.149737e+07 -9.176816e+07 -2.518926e+08
-6.060756e+07 -8.952538e+07 -3.481084e+08
-6.041460e+07 -8.933741e+07 -5.648352e+08
-6.039551e+07 -8.932219e+07 -6.611632e+08
-6.039224e+07 -8.931360e+07 -6.611652e+08
0.000000e+00 0.000000e+00 0.000000e+00
-6.047730e+07 -8.936096e+07 -3.240523e+08
0.000000e+00 0.000000e+00 0.000000e+00
-6.048987e+07 -8.942071e+07 -3.962849e+08
-6.042626e+07 -8.932864e+07 -4.926093e+08
0.000000e+00 0.000000e+00 0.000000e+00
-6.043326e+07 -8.937416e+07 -5.167066e+08
-6.045258e+07 -8.938683e+07 -4.926008e+08
-6.041512e+07 -8.934639e+07 -5.889352e+08
0.000000e+00 0.000000e+00 0.000000e+00
0.000000e+00 0.000000e+00 0.000000e+00
-6.040896e+07 -8.932760e+07 -3.481488e+08
0.000000e+00 0.000000e+00 0.000000e+00
-6.039768e+07 -8.931716e+07 -5.167088e+08
-6.041786e+07 -8.933618e+07 -4.444798e+08
