# vtk DataFile Version 2.0
Simplicial Mesh Example
ASCII
DATASET UNSTRUCTURED_GRID
POINTS 9490 double
4.132646e+04 -3.761110e+05 -2.495947e+04
1.739130e+04 -4.000000e+05 0.000000e+00
1.424943e+04 -3.757412e+05 -2.497841e+04
3.478261e+04 -4.000000e+05 -2.478841e+04
3.431474e+04 -3.668361e+05 0.000000e+00
6.536071e+04 -3.800007e+05 -2.495579e+04
5.217391e+04 -4.000000e+05 0.000000e+00
5.217391e+04 -4.000000e+05 -5.000000e+04
6.848295e+04 -3.663208e+05 -5.000000e+04
1.739130e+04 -4.000000e+05 -5.000000e+04
3.422046e+04 -3.663210e+05 -5.000000e+04
-4.000000e+05 1.043476e+05 -2.478869e+04
-3.778006e+05 1.290431e+05 -2.559237e+04
-3.668348e+05 1.033122e+05 0.000000e+00
-3.750401e+05 1.075547e+05 -3.181274e+04
4.000000e+05 -3.652174e+05 -2.500000e+04
3.692598e+05 -3.333058e+05 -2.499312e+04
3.776504e+05 -3.747415e+05 -2.247043e+04
3.693733e+05 -3.529960e+05 0.000000e+00
-4.000000e+05 8.695652e+04 0.000000e+00
-3.760516e+05 8.212939e+04 -2.543564e+04
-3.482879e+05 1.253124e+05 -2.574623e+04
-3.665651e+05 9.874016e+04 -5.000000e+04
-3.495547e+05 9.060720e+04 -2.563270e+04
-3.071185e+05 -3.486990e+05 -2.261025e+04
-3.153762e+05 -3.243183e+05 -5.000000e+04
-3.287827e+05 -3.355430e+05 -2.504110e+04
-3.095113e+05 -3.153966e+05 -2.507638e+04
-2.962358e+05 -3.323448e+05 0.000000e+00
-3.357456e+05 -3.422369e+05 0.000000e+00
-2.772919e+05 -3.669732e+05 0.000000e+00
-2.934123e+05 -3.742563e+05 -2.511903e+04
-2.806419e+05 -3.463229e+05 -2.661752e+04
-3.140042e+05 -3.607419e+05 -5.000000e+04
-3.320497e+05 -3.703516e+05 -2.524928e+04
-3.224905e+05 6.841821e+04 -2.756000e+04
-3.000000e+05 4.234958e+04 -2.422604e+04
-3.000000e+05 5.362570e+04 -5.000000e+04
-3.000000e+05 7.749820e+04 -2.479801e+04
3.227610e+05 -1.685566e+05 -2.697912e+04
3.499303e+05 -1.919500e+05 -2.498446e+04
3.500600e+05 -1.567367e+05 -2.546429e+04
3.335574e+05 -1.858748e+05 0.000000e+00
3.000000e+05 -1.659466e+05 0.000000e+00
3.208602e+05 -1.947095e+05 -2.232217e+04
3.000000e+05 -1.806737e+05 -2.506219e+04
3.330650e+05 -1.842018e+05 -5.000000e+04
3.000000e+05 -1.978940e+05 -5.000000e+04
3.000000e+05 -1.638587e+05 -5.000000e+04
-1.949782e+05 -3.787045e+05 -2.503133e+04
-1.713812e+05 -3.663209e+05 -5.000000e+04
-1.725141e+05 -3.772415e+05 -2.530126e+04
-1.913043e+05 -4.000000e+05 -5.000000e+04
-1.972219e+05 -3.510331e+05 -2.499278e+04
-1.739069e+05 -4.000000e+05 -2.478809e+04
-1.716829e+05 -3.668361e+05 0.000000e+00
-1.913043e+05 -4.000000e+05 0.000000e+00
1.358880e+05 -3.243044e+05 -2.504137e+04
1.166322e+05 -3.000000e+05 -2.516475e+04
1.497984e+05 -3.000000e+05 -2.516553e+04
1.333333e+05 -3.000000e+05 -5.000000e+04
1.825802e+05 3.751615e+05 -2.720292e+04
2.119132e+05 3.796036e+05 -2.524922e+04
2.061857e+05 3.668333e+05 0.000000e+00
1.947422e+05 3.503722e+05 -2.524152e+04
1.565217e+05 4.000000e+05 0.000000e+00
1.528807e+05 3.759790e+05 -2.499953e+04
1.739069e+05 4.000000e+05 -2.478809e+04
1.716839e+05 3.668365e+05 0.000000e+00
1.913043e+05 4.000000e+05 0.000000e+00
1.565217e+05 4.000000e+05 -5.000000e+04
1.713714e+05 3.663108e+05 -5.000000e+04
1.613560e+05 3.500277e+05 -2.506640e+04
-8.982230e+04 3.792244e+05 -2.494679e+04
-6.535746e+04 3.800015e+05 -2.495585e+04
-6.848071e+04 3.663195e+05 -5.000000e+04
-8.695652e+04 4.000000e+05 -5.000000e+04
-6.956522e+04 4.000000e+05 -2.478801e+04
-9.132937e+04 3.518806e+05 -2.497956e+04
-8.695652e+04 4.000000e+05 0.000000e+00
-6.863978e+04 3.668364e+05 0.000000e+00
8.983161e+04 -3.792230e+05 -2.494676e+04
8.695652e+04 -4.000000e+05 -5.000000e+04
6.956522e+04 -4.000000e+05 -2.478801e+04
8.695652e+04 -4.000000e+05 0.000000e+00
9.134075e+04 -3.518804e+05 -2.497894e+04
6.864043e+04 -3.668360e+05 0.000000e+00
-1.485035e+05 -3.773486e+05 -2.721498e+04
-1.630495e+05 -3.485427e+05 -2.521974e+04
-1.185212e+05 -3.761066e+05 -2.504756e+04
-1.217391e+05 -4.000000e+05 -5.000000e+04
-1.370985e+05 -3.663236e+05 -5.000000e+04
-1.217391e+05 -4.000000e+05 0.000000e+00
-1.391294e+05 -4.000000e+05 -2.478846e+04
-1.373218e+05 -3.668365e+05 0.000000e+00
-1.565217e+05 -4.000000e+05 0.000000e+00
-1.276844e+05 -3.500075e+05 -2.505733e+04
-3.784905e+05 1.568709e+05 -2.476156e+04
-3.664298e+05 1.337587e+05 -5.000000e+04
-3.514457e+05 1.599418e+05 -2.483113e+04
-4.000000e+05 1.565217e+05 -5.000000e+04
-4.000000e+05 1.391294e+05 -2.478846e+04
-3.668349e+05 1.375908e+05 0.000000e+00
-4.000000e+05 1.565217e+05 0.000000e+00
3.668265e+05 -1.714683e+05 0.000000e+00
4.000000e+05 -1.913043e+05 0.000000e+00
4.000000e+05 -1.739069e+05 -2.478809e+04
4.000000e+05 -1.565217e+05 0.000000e+00
3.763528e+05 1.812702e+05 -2.493822e+04
4.000000e+05 1.565217e+05 0.000000e+00
3.764050e+05 1.528124e+05 -2.490916e+04
4.000000e+05 1.739130e+05 -2.478510e+04
3.668383e+05 1.722952e+05 0.000000e+00
3.797466e+05 2.119345e+05 -2.497186e+04
4.000000e+05 1.913043e+05 -5.000000e+04
3.662642e+05 2.068445e+05 -5.000000e+04
3.507120e+05 1.619053e+05 -2.490325e+04
3.662844e+05 1.729597e+05 -5.000000e+04
4.000000e+05 1.565217e+05 -5.000000e+04
3.776488e+05 -7.900637e+04 -2.735718e+04
3.762845e+05 -4.901174e+04 -2.508786e+04
3.663605e+05 -6.676216e+04 -5.000000e+04
3.502306e+05 -5.807827e+04 -2.511783e+04
4.000000e+05 -5.217391e+04 -5.000000e+04
3.773063e+05 -1.038824e+05 -2.578879e+04
4.000000e+05 -8.695652e+04 0.000000e+00
3.668372e+05 -1.026508e+05 0.000000e+00
4.000000e+05 -5.217391e+04 0.000000e+00
4.000000e+05 -6.956519e+04 -2.478879e+04
3.668380e+05 -6.826645e+04 0.000000e+00
4.000000e+05 -1.043476e+05 -2.478869e+04
-1.666667e+05 -3.000000e+05 -5.000000e+04
-1.833333e+05 -3.000000e+05 -2.518468e+04
-1.933582e+05 -3.216521e+05 -2.503520e+04
-1.657267e+05 -3.213415e+05 -2.506307e+04
-1.666667e+05 -3.000000e+05 0.000000e+00
3.334882e+05 -2.202831e+05 0.000000e+00
3.000000e+05 -1.994599e+05 0.000000e+00
3.000000e+05 -2.085861e+05 -2.501244e+04
-1.859359e+05 -3.331067e+05 -5.000000e+04
-1.862587e+05 -3.335758e+05 0.000000e+00
-4.132523e+04 3.761107e+05 -2.495957e+04
-3.478261e+04 4.000000e+05 -2.478841e+04
-5.217391e+04 4.000000e+05 -5.000000e+04
-1.739130e+04 4.000000e+05 -5.000000e+04
-1.424890e+04 3.757408e+05 -2.497844e+04
-3.421938e+04 3.663190e+05 -5.000000e+04
-5.217391e+04 4.000000e+05 0.000000e+00
-1.739130e+04 4.000000e+05 0.000000e+00
-3.431405e+04 3.668365e+05 0.000000e+00
-2.739007e+04 3.505180e+05 -2.498776e+04
-1.739130e+05 4.000000e+05 -2.478510e+04
-1.528672e+05 3.759826e+05 -2.500255e+04
-1.716148e+05 3.668263e+05 0.000000e+00
-1.825315e+05 3.751689e+05 -2.721318e+04
-1.913043e+05 4.000000e+05 0.000000e+00
-2.059314e+05 3.667832e+05 0.000000e+00
-2.118669e+05 3.796033e+05 -2.526514e+04
-1.612599e+05 3.500460e+05 -2.507149e+04
-1.913043e+05 4.000000e+05 -5.000000e+04
-2.056558e+05 3.663226e+05 -5.000000e+04
-1.712892e+05 3.663242e+05 -5.000000e+04
-1.565217e+05 4.000000e+05 -5.000000e+04
3.507710e+05 -3.071241e+05 -1.983709e+04
3.472371e+05 -2.783609e+05 -2.630278e+04
3.316724e+05 -2.967750e+05 0.000000e+00
3.666108e+05 -2.775848e+05 0.000000e+00
3.309559e+05 -3.255688e+05 -2.698212e+04
3.397681e+05 -3.369212e+05 0.000000e+00
3.744093e+05 -2.934608e+05 -2.492539e+04
3.303054e+05 -2.869393e+05 -5.000000e+04
3.606270e+05 -3.135064e+05 -5.000000e+04
-3.238506e+05 1.781151e+05 -2.284516e+04
-3.335738e+05 1.866432e+05 0.000000e+00
-3.000000e+05 1.673499e+05 0.000000e+00
-3.000000e+05 2.005124e+05 0.000000e+00
-3.242363e+05 2.019112e+05 -2.479758e+04
-3.335722e+05 1.528704e+05 0.000000e+00
-3.219833e+05 1.550144e+05 -2.418889e+04
-3.331119e+05 1.814444e+05 -5.000000e+04
-3.500623e+05 1.947691e+05 -2.492389e+04
3.000000e+05 -1.480457e+05 -2.518612e+04
3.070808e+05 3.546107e+05 -1.714572e+04
2.838715e+05 3.432764e+05 -2.626473e+04
2.962288e+05 3.323792e+05 0.000000e+00
2.772894e+05 3.669850e+05 0.000000e+00
3.214547e+05 3.369143e+05 -2.636251e+04
3.136723e+05 3.607135e+05 -5.000000e+04
2.935138e+05 3.747013e+05 -2.499119e+04
3.357389e+05 3.423035e+05 0.000000e+00
3.310854e+05 3.708053e+05 -2.520548e+04
-3.303425e+05 2.864208e+05 -5.000000e+04
-3.469504e+05 2.817468e+05 -2.677742e+04
-3.300427e+05 3.281790e+05 -2.631692e+04
-3.606526e+05 3.133330e+05 -5.000000e+04
-3.538099e+05 3.084519e+05 -1.787405e+04
-3.749470e+05 2.933940e+05 -2.493585e+04
-3.716865e+05 3.330494e+05 -2.604840e+04
-3.422611e+05 3.357632e+05 0.000000e+00
-3.323575e+05 2.962961e+05 0.000000e+00
-3.669772e+05 2.773495e+05 0.000000e+00
-3.208683e+05 1.285984e+05 -2.543766e+04
-3.000000e+05 1.341874e+05 0.000000e+00
-3.000000e+05 1.457374e+05 -2.479770e+04
-3.331557e+05 1.463574e+05 -5.000000e+04
-3.335717e+05 1.191216e+05 0.000000e+00
-3.000000e+05 1.116890e+05 -2.479816e+04
3.750985e+05 1.731082e+04 -2.495385e+04
3.668370e+05 3.487991e+04 0.000000e+00
3.766226e+05 5.120408e+04 -2.491509e+04
3.486553e+05 3.094323e+04 -2.470062e+04
3.664079e+05 2.208090e+03 -5.000000e+04
3.755591e+05 -1.521008e+04 -2.489784e+04
3.365423e+05 9.969610e+02 -2.491966e+04
3.668382e+05 4.985393e+02 0.000000e+00
4.000000e+05 8.858707e-04 -2.478866e+04
4.000000e+05 1.739130e+04 0.000000e+00
3.664904e+05 3.662308e+04 -5.000000e+04
4.000000e+05 1.739130e+04 -5.000000e+04
4.000000e+05 3.478261e+04 -2.478841e+04
3.241835e+05 -1.338846e+05 -2.511108e+04
3.331162e+05 -1.156285e+05 -5.000000e+04
3.331063e+05 -1.499070e+05 -5.000000e+04
3.000000e+05 -1.298234e+05 -5.000000e+04
3.000000e+05 -1.142814e+05 -2.518156e+04
3.501925e+05 -1.229656e+05 -2.536930e+04
3.335703e+05 -1.518628e+05 0.000000e+00
3.335746e+05 -1.178848e+05 0.000000e+00
3.000000e+05 -1.324332e+05 0.000000e+00
-1.185180e+05 -3.335740e+05 0.000000e+00
-1.333333e+05 -3.000000e+05 0.000000e+00
-1.000000e+05 -3.000000e+05 0.000000e+00
-1.166667e+05 -3.000000e+05 -2.516967e+04
3.767701e+05 8.545747e+04 -2.498937e+04
4.000000e+05 8.695652e+04 -5.000000e+04
3.664910e+05 7.093362e+04 -5.000000e+04
3.664147e+05 1.050627e+05 -5.000000e+04
4.000000e+05 8.695652e+04 0.000000e+00
3.668311e+05 6.925743e+04 0.000000e+00
4.000000e+05 6.956522e+04 -2.478801e+04
3.532003e+05 6.143720e+04 -2.460611e+04
3.529343e+05 9.380645e+04 -2.566405e+04
-6.874474e+04 -3.242435e+05 -2.504036e+04
[...]
CELL_DATA 20058
SCALARS total_strain double 6
LOOKUP_TABLE default
5.230216e-11 1.885301e-10 -5.166123e-11 -3.178919e-10 -5.217854e-12 -2.417483e-11
-1.193694e-10 2.310356e-10 -3.706235e-11 -2.381697e-10 -3.044043e-11 4.605594e-12
1.764606e-10 1.000531e-10 -7.417578e-11 -2.755305e-10 -2.326717e-11 -3.397593e-11
9.605872e-11 1.224771e-10 -5.619749e-11 -2.982175e-10 -1.830364e-11 1.747502e-11
-6.901058e-11 2.123848e-10 -5.060519e-11 -2.210876e-10 -2.088746e-11 -2.621570e-12
-9.627854e-13 1.707159e-10 -5.332490e-11 -2.970690e-10 -3.360101e-11 -1.032785e-11
8.149703e-11 1.364544e-10 -5.447864e-11 -2.447730e-10 -2.345524e-11 -8.483714e-12
-4.171916e-10 -1.517811e-09 3.390972e-10 1.101376e-09 1.428344e-10 1.369593e-11
-8.023466e-10 -1.379247e-09 4.453804e-10 1.414996e-09 3.598673e-10 -1.652306e-11
-4.426397e-10 -1.452668e-09 4.441965e-10 1.029314e-09 2.653266e-10 -1.411093e-11
-9.103225e-10 -6.603279e-10 4.293863e-10 1.006363e-09 2.221316e-10 -6.652481e-11
-7.494596e-10 -1.323826e-09 4.116469e-10 1.253870e-09 3.499423e-10 -1.091438e-10
-5.641470e-10 -1.308303e-09 4.489604e-10 1.123921e-09 1.762526e-10 2.349032e-11
9.719674e-10 -4.917284e-10 -1.362310e-10 -1.272649e-11 3.677954e-12 1.540545e-11
8.846808e-10 -5.075110e-10 -1.410037e-10 2.521119e-11 7.723891e-13 -1.069322e-11
8.898500e-10 -4.928797e-10 -1.301470e-10 3.605938e-11 1.583531e-11 -3.185452e-12
-1.031052e-10 -1.679538e-09 4.514857e-10 -4.600786e-10 -2.202061e-11 -9.350828e-11
-5.917784e-10 -4.877672e-10 7.168399e-11 1.581214e-10 -1.721134e-11 -5.864309e-12
-2.867773e-11 -1.706454e-09 4.648388e-10 -2.756450e-10 -4.405809e-12 2.207332e-11
9.884293e-11 -1.679368e-09 4.526184e-10 -4.538841e-10 -2.131095e-11 -6.149892e-11
2.421061e-10 -1.710973e-09 4.810232e-10 -2.430124e-10 -7.872813e-12 -5.058387e-11
1.782303e-10 -2.030104e-09 4.816394e-10 -3.858202e-10 -5.363404e-12 -4.959921e-11
-2.986393e-10 3.780336e-10 -1.941247e-11 -1.768736e-10 -1.829858e-11 -1.024458e-11
3.222800e-10 1.887265e-09 -9.278778e-10 -8.903104e-10 2.288260e-10 -4.955667e-10
-2.214957e-10 3.152656e-10 -1.978950e-11 -1.514544e-10 -1.225137e-11 9.809931e-12
-3.900755e-10 3.860903e-10 -1.274258e-11 -1.334417e-10 -6.470824e-12 -1.752842e-11
-3.622542e-10 3.810006e-10 -9.463541e-12 -1.256217e-10 -1.049377e-11 -1.530731e-11
-2.895142e-10 3.859633e-10 -9.182433e-12 -1.000635e-10 -6.218359e-12 -7.442269e-12
-3.179865e-10 3.828866e-10 -1.018241e-11 -1.025280e-10 -6.474377e-12 1.329675e-11
2.114553e-11 2.012115e-10 -6.719048e-11 -2.016158e-10 -4.028244e-11 -1.215195e-12
8.695444e-11 1.082432e-10 -5.477041e-11 -1.326859e-10 -5.229150e-12 1.072253e-11
3.435785e-11 7.440892e-11 -6.930501e-11 -2.188282e-10 -1.199393e-11 1.070277e-11
6.328142e-10 -2.380433e-09 -2.750276e-10 6.357021e-10 -5.380205e-10 4.675216e-11
7.646759e-10 -2.289361e-09 -2.285114e-10 4.225675e-10 -1.795779e-10 5.452433e-11
6.441776e-10 -2.512754e-09 -1.719231e-10 6.019933e-10 -2.823797e-10 8.755874e-11
7.774079e-10 -3.929657e-10 -1.321396e-10 -1.434514e-10 -9.762635e-12 4.913459e-11
8.311956e-10 -3.755813e-10 -1.343996e-10 -1.222319e-10 8.772427e-13 1.510503e-11
7.378511e-10 -3.437060e-10 -1.215155e-10 -1.627241e-10 -1.627876e-11 1.388412e-11
5.768381e-10 -2.968727e-10 -1.204717e-10 -1.526854e-10 -9.276885e-12 -3.463674e-12
-4.843876e-10 2.917995e-10 7.706946e-11 3.882206e-11 7.630646e-12 3.618894e-11
7.849303e-10 -3.723120e-10 -1.280624e-10 -1.173442e-10 -1.357475e-11 4.902767e-11
-8.734247e-11 1.619584e-10 -2.625628e-09 1.096281e-09 -1.021812e-09 6.830216e-10
6.568541e-10 -2.869058e-10 -1.325029e-10 -1.594998e-10 -2.805905e-12 -3.531841e-12
-6.828742e-10 2.688427e-10 1.328431e-10 4.114753e-11 1.926470e-11 -1.612543e-11
-6.882077e-10 2.864846e-10 1.249798e-10 3.298251e-11 3.665623e-12 -1.534617e-11
-6.640475e-10 2.800196e-10 1.161897e-10 2.655742e-11 1.052713e-11 -2.516432e-12
-6.972569e-10 3.089689e-10 1.240745e-10 4.516831e-11 1.576406e-11 -1.956413e-11
-7.057486e-10 3.193845e-10 1.211915e-10 2.439354e-11 -4.419798e-13 -1.847439e-12
3.510964e-09 2.119336e-10 -2.443130e-10 1.712647e-09 2.679660e-10 1.786415e-10
9.194610e-10 -3.330682e-09 6.758603e-10 9.273937e-11 2.220415e-16 -1.692424e-11
4.867365e-09 -7.751897e-10 -5.120238e-11 1.727158e-09 3.138804e-10 1.128552e-09
1.746146e-09 3.197149e-10 -8.053150e-10 1.676133e-09 -2.013288e-10 -1.951126e-10
3.330875e-09 2.991438e-10 -3.705724e-10 1.904781e-09 5.332039e-10 4.096992e-10
3.778331e-09 4.035874e-10 -3.130372e-10 2.573008e-09 5.961958e-10 8.919221e-10
5.287901e-10 1.328341e-09 -3.545151e-09 8.757754e-10 -4.301122e-10 2.386075e-10
5.852943e-09 -2.244950e-09 2.051581e-10 -4.349988e-10 1.657363e-11 3.669525e-10
5.125711e-09 -2.513497e-09 7.498564e-10 3.861058e-10 2.901793e-11 4.203257e-11
5.675935e-09 -2.610668e-09 1.205125e-10 -1.763966e-10 2.619230e-10 2.150853e-10
5.608787e-09 -2.712756e-09 6.423115e-10 -2.439256e-10 -1.418287e-10 9.981192e-11
5.606753e-09 -2.708291e-09 6.449210e-10 2.587221e-10 1.342890e-10 1.016276e-10
5.746092e-09 -2.780727e-09 1.011911e-09 -1.365566e-10 1.106039e-10 3.344285e-10
4.766289e-09 -1.757060e-09 9.257080e-10 -1.605755e-09 -3.310831e-10 1.292703e-09
4.094544e-09 -1.553994e-09 1.031942e-09 -1.304728e-09 -2.057614e-10 8.451302e-10
3.993119e-09 -1.506502e-09 7.283090e-10 -1.445713e-09 -6.131072e-11 1.037860e-09
6.382145e-09 -2.729024e-09 1.053961e-09 -7.013130e-10 6.620582e-11 2.211444e-09
6.220253e-09 -2.724416e-09 3.044110e-09 -7.081290e-10 -4.557987e-11 2.024449e-09
4.831017e-09 -2.060389e-09 1.031324e-09 -1.382297e-09 -3.082995e-10 7.066401e-10
4.777864e-09 -2.313752e-09 1.865186e-09 -1.506228e-09 -4.977529e-10 5.286254e-10
1.102269e-09 7.534182e-10 -3.061897e-10 -1.213793e-09 -7.798428e-11 -7.258194e-12
3.057388e-09 6.655563e-10 1.763354e-10 -1.532475e-09 -2.107418e-10 9.690222e-10
3.861354e-09 -4.765918e-10 -2.710721e-12 -1.292020e-09 -2.337160e-10 1.011796e-09
1.310013e-09 1.188025e-10 2.141083e-10 -9.926371e-10 -2.038299e-10 4.306746e-10
2.688181e-09 -6.079389e-10 -3.580243e-10 -8.984840e-10 -7.949336e-12 3.492898e-10
-2.359126e-10 3.324034e-10 -2.435563e-11 -1.011475e-10 -1.133088e-11 1.061862e-11
-1.936122e-10 3.190086e-10 -2.836931e-11 -1.324016e-10 -2.159622e-11 -6.261186e-12
-7.814549e-11 2.644747e-10 -4.621747e-11 -1.338369e-10 -1.816880e-11 -9.993117e-12
-1.823715e-10 2.513572e-10 -3.808287e-11 -9.073764e-11 -2.112643e-11 -8.939960e-12
-3.646954e-10 2.256986e-10 4.361911e-11 1.208922e-11 1.491174e-11 -7.835288e-12
-4.204290e-10 2.641904e-10 4.843215e-11 1.994405e-12 1.077516e-11 3.784195e-12
-3.605355e-10 1.481490e-09 -2.244890e-09 5.766888e-10 -2.329019e-10 1.574874e-10
-4.461338e-10 2.672929e-10 5.468248e-11 3.010858e-11 1.692935e-11 1.867562e-11
-4.215668e-10 2.709242e-10 4.614087e-11 4.527068e-11 1.348832e-11 -4.403922e-12
-3.927383e-10 2.415126e-10 4.695377e-11 7.999512e-11 2.092782e-11 1.501343e-11
-3.527809e-10 1.978222e-10 4.397727e-11 4.407052e-11 1.170752e-11 1.785461e-12
-1.668524e-09 2.105733e-09 5.142788e-10 7.561617e-10 -4.742613e-10 -6.674711e-11
-3.791545e-10 2.817719e-10 4.592993e-11 7.397816e-11 1.134826e-11 -5.459189e-12
-8.644125e-10 1.330392e-09 -1.607075e-09 1.660039e-10 -2.776090e-10 3.133163e-10
-9.295196e-10 -9.644960e-10 3.698655e-10 7.693419e-10 1.663146e-10 -4.425171e-11
-1.169324e-09 -6.994547e-10 4.208025e-10 6.093417e-10 8.697754e-11 -4.803513e-11
-1.167570e-09 -5.532677e-10 3.566709e-10 6.352590e-10 1.458129e-10 -5.340134e-11
-1.288423e-09 -7.318524e-10 4.250893e-10 8.332652e-10 2.413644e-10 -2.595463e-11
-9.094734e-10 -6.445580e-10 1.783285e-10 9.939559e-10 2.965230e-10 -5.180828e-11
-1.304539e-10 2.725891e-10 -4.468248e-11 -1.987761e-10 -1.972911e-11 -1.990741e-11
-1.908536e-10 3.076523e-10 -2.898082e-11 -1.294095e-10 -1.657685e-11 -9.222401e-12
-2.031086e-10 2.884772e-10 -3.072698e-11 -8.419504e-11 5.526761e-12 -2.678302e-12
-1.336076e-10 2.395504e-10 -3.919620e-11 -1.215196e-10 -2.512525e-11 -1.114947e-11
-1.205152e-10 2.435776e-10 -4.438405e-11 -2.024105e-10 -4.032774e-12 -2.749867e-11
-1.533040e-10 2.751603e-10 -3.290079e-11 -1.217324e-10 -2.444711e-13 -2.607581e-11
-1.606489e-09 1.278480e-10 2.138014e-10 -7.205510e-10 -5.775533e-10 -1.465867e-10
-1.671786e-09 6.595018e-10 -4.043010e-11 -4.873630e-10 -3.900409e-10 -1.098863e-10
-1.498131e-09 -2.110099e-10 1.521427e-10 -6.670855e-10 -5.807511e-10 -1.907010e-10
-1.533551e-09 1.215561e-10 3.072409e-11 -7.250769e-10 -5.435901e-10 -1.177919e-10
-1.634355e-09 3.494876e-10 -1.409560e-10 -7.585492e-10 -5.682020e-10 -2.431206e-10
5.481199e-09 -1.883053e-09 -5.828404e-10 1.549836e-10 1.242960e-10 2.891051e-10
5.481765e-09 -1.912560e-09 -2.426237e-11 1.517310e-10 9.411771e-11 2.624200e-10
2.367701e-09 3.933742e-10 -5.284746e-10 4.699696e-11 3.050541e-10 1.551251e-10
6.233938e-09 -1.921322e-09 -6.690102e-10 9.978274e-11 -5.785378e-11 8.142977e-10
5.828010e-09 -1.172823e-09 -9.050714e-10 7.717881e-10 2.593995e-10 9.466314e-10
5.196910e-09 -1.217455e-09 -3.690448e-10 -2.014244e-11 2.071188e-11 1.973826e-10
4.695798e-09 -1.327132e-09 -4.603620e-10 5.120798e-10 -1.447420e-11 3.790576e-10
-1.339732e-09 -2.914433e-10 2.780436e-10 2.551159e-10 2.232214e-10 -9.395518e-11
-1.205107e-09 -2.808864e-10 5.649969e-11 4.909366e-10 1.740343e-10 -1.089027e-10
-1.184656e-09 -2.540901e-10 2.992038e-10 5.762529e-10 3.313843e-10 -2.159201e-11
-1.980576e-09 2.160456e-09 -1.199202e-10 7.119317e-10 1.048874e-10 2.935147e-10
-9.473791e-10 -9.586731e-10 3.173879e-10 6.490399e-10 2.088864e-10 -7.450646e-11
-1.163407e-09 -6.794494e-10 3.631304e-10 3.119864e-10 2.018568e-10 2.384692e-11
-4.596377e-10 2.662048e-10 5.766188e-11 6.197975e-11 1.162093e-11 1.829770e-11
-4.845440e-10 2.936336e-10 5.873435e-11 4.952794e-11 7.182921e-12 -3.996803e-13
-3.409983e-10 2.020588e-10 4.516254e-11 3.374367e-11 1.845812e-11 -2.784706e-11
-5.396221e-10 3.018794e-10 5.972334e-11 3.131340e-11 1.456935e-11 -1.553185e-11
-4.268621e-10 2.618128e-10 6.011702e-11 6.923440e-11 8.619550e-12 -2.253753e-11
-4.590124e-10 2.735205e-10 6.650858e-11 8.280387e-11 1.729752e-11 -1.113820e-11
-9.160598e-10 2.573700e-09 -1.750255e-09 -2.260801e-09 4.070162e-10 5.851519e-10
-7.765092e-10 2.902799e-09 5.068226e-10 -2.509721e-09 3.664157e-10 3.243196e-10
-3.146802e-10 2.043625e-09 7.033334e-10 -2.541747e-09 4.207093e-10 1.050775e-10
-1.309628e-10 2.943183e-10 -2.394529e-11 -4.371175e-10 2.430500e-12 1.370792e-11
2.069924e-10 1.568323e-09 5.643510e-10 -2.882844e-09 4.295750e-10 1.023459e-11
-6.704144e-10 2.099292e-09 3.932383e-10 -2.681043e-09 4.191427e-10 3.581688e-10
7.925465e-10 -3.945968e-10 -1.317260e-10 -8.309398e-11 -1.449529e-11 1.393108e-12
8.447252e-10 -4.330910e-10 -1.303873e-10 -8.182610e-11 -5.012379e-12 1.492895e-11
7.078551e-10 -3.611815e-10 -1.231705e-10 -1.541540e-10 -7.182060e-12 -1.784872e-11
8.672809e-10 -4.473466e-10 -1.369616e-10 -1.191999e-10 -5.211581e-12 -1.167684e-12
8.393068e-10 -3.585421e-10 -1.332230e-10 -1.695691e-10 -2.347117e-11 8.255674e-12
8.212715e-10 -4.422942e-10 -1.268716e-10 -1.035158e-10 -1.939179e-11 7.853163e-12
-8.999486e-10 5.119656e-10 -1.416218e-10 -2.302439e-10 -2.915579e-11 -3.715472e-11
-8.593202e-10 3.586162e-10 1.314904e-11 -1.869651e-10 -1.363043e-11 -3.055134e-11
-8.790200e-10 4.719434e-10 -5.252243e-11 -2.596557e-10 -7.864176e-11 1.390443e-12
-8.717267e-10 3.519105e-10 4.018030e-11 -1.963851e-10 -1.003952e-11 -2.060296e-11
9.070114e-10 -4.753096e-10 -1.379798e-10 1.875239e-11 3.566702e-12 1.606049e-12
8.954943e-10 -4.802063e-10 -1.341105e-10 3.668850e-11 3.008746e-12 1.824563e-11
8.381313e-10 -4.644122e-10 -1.341203e-10 8.583317e-11 -6.600762e-13 -6.641021e-12
9.525676e-10 -5.112107e-10 -1.432223e-10 1.018934e-10 7.371326e-13 -1.644263e-11
9.629666e-10 -5.252103e-10 -1.368405e-10 4.609201e-11 1.605771e-11 1.195311e-11
9.192140e-10 -4.878219e-10 -1.394520e-10 1.749085e-11 -4.596189e-12 1.381451e-11
8.953247e-10 -4.847577e-10 -1.365246e-10 -5.162121e-12 3.727588e-12 1.046296e-11
9.170229e-10 -5.050186e-10 -1.389666e-10 1.571526e-11 1.012065e-11 9.725553e-14
1.016041e-09 -5.053630e-10 -1.342144e-10 1.124376e-11 8.559001e-12 2.641654e-11
-3.243639e-10 2.795154e-09 -3.527009e-09 1.007857e-10 -4.055681e-10 2.640930e-10
-3.483893e-10 2.236513e-10 4.769096e-11 5.106338e-11 -2.207345e-12 6.066370e-12
-3.746834e-10 2.256533e-10 5.093259e-11 1.231237e-10 1.525713e-11 -2.008749e-11
-3.587965e-10 2.082547e-10 3.903633e-11 1.192673e-10 -1.088020e-14 -2.848743e-11
-3.961329e-10 2.368061e-10 4.998801e-11 7.080736e-11 2.167155e-13 -2.442913e-11
-4.482956e-10 2.556471e-10 4.794298e-11 9.515499e-11 1.022138e-11 -7.688516e-12
-4.245493e-10 2.585827e-10 5.567746e-11 8.394563e-11 1.300143e-11 -8.587908e-12
5.662983e-10 -7.615504e-10 -2.549842e-09 -2.101724e-09 4.642799e-10 1.354098e-10
-7.420248e-10 7.273606e-10 -1.289865e-09 -1.876883e-09 5.090031e-10 3.638341e-10
-1.594519e-09 1.107133e-09 -6.813767e-10 -8.051780e-10 2.943978e-11 4.187783e-11
-7.161676e-10 -5.834178e-11 -1.298899e-09 -1.873449e-09 3.948031e-10 3.783225e-10
1.736942e-10 -6.015437e-10 -1.810207e-09 -2.063801e-09 1.017806e-10 -1.315460e-10
-4.029023e-10 -1.946541e-10 -1.420797e-09 -1.952990e-09 4.435949e-10 3.776497e-10
1.083430e-09 -2.754303e-09 -8.604775e-10 -1.034537e-09 -5.681583e-10 -8.287393e-11
7.005774e-10 -2.711658e-09 -4.502416e-10 -6.850456e-10 -4.662342e-10 -1.062792e-10
7.159824e-10 -2.376234e-09 -8.188534e-10 -7.924715e-10 -5.053833e-10 -9.531375e-12
8.271011e-10 -2.159852e-09 -1.379693e-09 -1.220841e-09 -3.934584e-10 -1.640958e-10
7.176784e-10 -2.369741e-09 -3.760761e-10 -7.891088e-10 -2.324554e-10 1.095537e-10
4.229692e-10 -2.253631e-09 -6.507808e-10 -8.156640e-10 -2.841549e-10 -1.778693e-10
5.763212e-11 1.530438e-10 -6.293721e-11 -2.475580e-10 -3.579448e-11 -1.921130e-11
5.108447e-11 1.327427e-10 -5.300160e-11 -1.519829e-10 5.069278e-13 -9.563239e-12
1.620806e-10 1.092886e-10 -6.680390e-11 -1.973494e-10 -6.075584e-12 2.306544e-12
1.682743e-10 5.976908e-11 -7.730883e-11 -2.302186e-10 -2.924749e-11 -1.614783e-11
-1.415721e-09 -1.744205e-10 -4.085201e-10 -7.198468e-10 -3.876748e-10 -2.033019e-10
-1.482954e-09 2.865326e-10 -5.555085e-10 -7.090842e-10 -3.863412e-10 -8.663341e-11
-1.498075e-09 8.051426e-11 -2.072986e-10 -4.959966e-10 -1.869787e-10 -1.073053e-10
-1.207467e-09 -1.213749e-10 -3.891314e-10 -8.251457e-10 8.353540e-12 4.115308e-11
-2.531695e-10 3.648388e-10 -2.733280e-11 -3.827361e-11 -9.050094e-12 -5.853193e-12
-2.275757e-10 3.137313e-10 -2.849498e-11 -1.131648e-10 -2.242451e-11 -2.794709e-12
-2.412830e-10 3.651213e-10 -3.066369e-11 -6.920042e-11 -9.378831e-12 -1.271400e-11
-8.706165e-10 1.336669e-09 -2.630292e-09 -1.518654e-09 -1.903091e-10 -1.275282e-10
-3.155503e-10 3.755423e-10 -2.737566e-11 -7.966383e-11 -7.838397e-12 -1.684564e-11
3.847667e-10 -2.130611e-09 4.965330e-10 -5.469629e-10 7.775025e-11 -3.367265e-11
6.568808e-10 -2.806383e-09 4.899310e-10 -5.086876e-10 -1.199330e-11 -2.252476e-12
4.271179e-10 -2.247043e-09 3.595315e-10 -6.294255e-10 1.534764e-10 6.924876e-13
6.594554e-10 -2.372429e-09 3.459337e-10 -6.298925e-10 2.630940e-11 -1.619883e-11
6.541472e-10 -2.563650e-09 4.237330e-10 -5.796640e-10 9.461720e-11 -5.751566e-12
4.314229e-10 -2.030580e-10 -8.312107e-11 1.665355e-10 9.549916e-12 5.072032e-11
-1.104318e-09 -1.063894e-09 2.909295e-10 -5.850458e-10 -2.755626e-10 -1.004201e-10
-7.004317e-10 -8.700027e-10 4.412579e-10 -8.265597e-10 -4.456680e-11 -1.025426e-10
-7.059437e-10 -1.182670e-09 2.526879e-10 -5.129244e-10 -1.453407e-10 -9.979791e-11
-1.024723e-09 -7.087908e-10 4.446608e-10 -4.067512e-10 -2.490880e-10 2.906031e-11
-1.052952e-09 -1.095772e-09 4.141778e-10 -6.120549e-10 -3.191442e-10 -2.083178e-11
-6.920642e-10 -1.788163e-09 1.792255e-11 -7.302905e-10 -5.758953e-10 -1.733566e-10
-3.476472e-10 1.942420e-10 2.855494e-11 4.566303e-11 2.152256e-11 1.029066e-11
-7.159922e-10 6.324026e-10 -1.390936e-10 -6.200178e-10 -1.157829e-11 -6.322254e-11
-6.370686e-10 7.430572e-10 -1.832428e-10 -8.145313e-10 -1.216549e-10 7.218470e-11
-8.875998e-10 6.089702e-10 -1.947105e-10 -4.244800e-10 -6.891243e-11 3.474554e-11
-6.801857e-10 6.826597e-10 -2.025051e-10 -5.662786e-10 -2.770184e-11 -4.192602e-11
-7.364522e-10 8.537198e-10 -2.333862e-10 -7.481150e-10 -9.898082e-11 1.275702e-10
-1.266915e-08 -6.465433e-09 2.930413e-08 -5.974500e-10 -1.688720e-10 -1.236311e-10
-9.919915e-09 -4.076008e-09 2.521344e-08 -2.929838e-09 -3.031165e-09 1.250787e-09
-1.256163e-08 -6.777101e-09 2.915674e-08 2.080693e-10 2.073410e-10 -2.764696e-10
-1.193076e-08 -3.499238e-09 3.798357e-08 1.223149e-09 -3.517019e-09 -2.699711e-09
-1.157997e-08 -6.012141e-09 3.046826e-08 -8.953714e-10 -8.880230e-10 9.076550e-10
-1.808672e-09 1.484046e-09 -3.093552e-10 7.063022e-10 5.462385e-10 -2.934778e-10
-1.746467e-09 1.421694e-09 -3.049179e-10 6.960901e-10 5.503369e-10 -3.101481e-10
-2.073298e-09 1.620061e-09 -4.488268e-10 1.531009e-09 7.094084e-10 -5.989541e-10
2.705658e-11 1.301625e-12 -5.599077e-12 1.927019e-10 3.106959e-11 -1.432410e-12
-2.053124e-09 2.215887e-09 -9.735603e-10 1.154086e-09 7.543416e-10 -9.669000e-10
-1.576127e-09 1.631498e-09 -2.320428e-10 3.832961e-10 4.248475e-10 -9.763204e-11
-1.359622e-09 2.184425e-09 -7.242811e-10 7.941398e-11 4.736159e-10 -4.065348e-10
5.821350e-10 -2.467004e-10 -8.643930e-11 3.581767e-10 -6.446283e-12 6.070217e-12
6.304992e-10 -3.143961e-10 -9.308643e-11 3.352741e-10 -1.513933e-11 -2.534462e-11
5.516503e-10 -2.478986e-10 -8.407319e-11 2.581592e-10 -1.153100e-11 -3.012923e-12
4.435066e-10 -2.016329e-10 -6.775958e-11 3.069877e-10 -4.930239e-12 1.927125e-12
2.234146e-10 -2.153959e-09 -2.256781e-10 4.241747e-10 -1.598472e-10 5.950751e-11
-1.773902e-10 -1.258147e-09 -2.704469e-10 5.455803e-10 -8.393403e-11 8.376965e-11
1.972156e-10 -1.563498e-09 -1.462643e-10 4.015257e-10 -1.142362e-10 -7.410406e-12
-1.712043e-09 3.166375e-09 -1.610982e-09 -1.380740e-09 7.100869e-10 7.209251e-10
-1.684319e-10 -1.187479e-09 -7.568199e-10 7.900823e-10 -3.257381e-10 1.151564e-10
-1.598078e-10 -1.158974e-09 -4.636651e-10 7.614076e-10 -4.335359e-10 2.717199e-10
2.219354e-10 -1.678881e-09 -3.630114e-10 4.685576e-10 4.661627e-11 -7.901278e-11
4.477696e-10 -1.871842e-09 -2.929859e-10 6.691407e-10 -3.294220e-10 2.417899e-10
2.254581e-10 -2.343313e-09 -1.806766e-11 7.336468e-10 -4.392460e-10 2.448286e-10
3.064426e-10 -1.818271e-09 -3.847118e-10 7.719828e-10 -4.419980e-10 7.640330e-11
-6.464673e-10 2.680469e-10 1.214082e-10 5.903811e-11 5.751843e-12 3.047701e-13
-6.486117e-10 2.779430e-10 1.164979e-10 7.484499e-11 9.830803e-12 -1.958845e-11
-6.494815e-10 2.533849e-10 1.199894e-10 2.884698e-11 6.936146e-12 -6.930290e-12
4.437481e-10 -2.016243e-10 -7.463630e-11 3.070400e-10 8.242074e-12 4.118172e-11
3.648335e-10 -1.605360e-10 -6.536549e-11 2.353413e-10 1.228195e-11 -4.263456e-11
3.814984e-10 -1.502629e-10 -5.776402e-11 3.466751e-10 2.197820e-11 4.220357e-11
7.419789e-10 -3.300893e-10 -1.315446e-10 -1.926421e-10 -7.113199e-12 5.553558e-12
7.342482e-10 -3.537420e-10 -1.257319e-10 -2.074562e-10 -2.590769e-11 -5.528911e-13
8.782806e-10 -3.948069e-10 -1.353515e-10 -2.265004e-10 -1.405676e-11 1.721103e-11
7.464414e-10 -3.141414e-10 -1.373723e-10 -2.040401e-10 1.257638e-11 2.019607e-12
8.028795e-10 -3.797092e-10 -1.321370e-10 -9.456325e-11 3.292477e-12 -2.512213e-11
9.048478e-10 -4.363871e-10 -1.418106e-10 -1.098113e-10 -3.038708e-12 1.696598e-11
8.789538e-10 -4.602523e-10 -1.386562e-10 -1.391478e-10 6.608047e-13 -3.255840e-12
2.432633e-09 2.880967e-10 1.073169e-09 2.905181e-09 1.100557e-10 9.483572e-10
2.939972e-09 -1.472867e-09 6.222857e-09 3.462882e-09 7.997515e-10 6.972596e-10
3.649827e-09 -1.474566e-09 1.981175e-09 2.823688e-09 6.354734e-10 6.276077e-10
2.812465e-09 -5.649685e-10 2.724597e-09 2.813869e-09 4.105119e-10 1.182134e-09
9.930670e-10 -4.255346e-10 -1.668479e-10 -2.662282e-10 8.083645e-12 2.581224e-11
7.484573e-10 -3.522610e-10 -1.282219e-10 -3.274203e-10 4.880873e-12 3.245137e-11
9.304797e-10 -4.416889e-10 -1.563194e-10 -3.250515e-10 7.217782e-12 -1.738587e-11
8.132544e-10 -3.576983e-10 -1.331943e-10 -2.724662e-10 1.010036e-11 -1.529465e-11
-1.129924e-09 -3.903695e-10 -4.153611e-10 -8.987548e-10 -2.038110e-10 -6.231991e-11