# vtk DataFile Version 2.0
Simplicial Mesh Example
ASCII
DATASET UNSTRUCTURED_GRID
POINTS 9490 double
4.132646e+04 -3.761110e+05 -2.495947e+04
1.739130e+04 -4.000000e+05 0.000000e+00
1.424943e+04 -3.757412e+05 -2.497841e+04
3.478261e+04 -4.000000e+05 -2.478841e+04
3.431474e+04 -3.668361e+05 0.000000e+00
6.536071e+04 -3.800007e+05 -2.495579e+04
5.217391e+04 -4.000000e+05 0.000000e+00
5.217391e+04 -4.000000e+05 -5.000000e+04
6.848295e+04 -3.663208e+05 -5.000000e+04
1.739130e+04 -4.000000e+05 -5.000000e+04
3.422046e+04 -3.663210e+05 -5.000000e+04
-4.000000e+05 1.043476e+05 -2.478869e+04
-3.778006e+05 1.290431e+05 -2.559237e+04
-3.668348e+05 1.033122e+05 0.000000e+00
-3.750401e+05 1.075547e+05 -3.181274e+04
4.000000e+05 -3.652174e+05 -2.500000e+04
3.692598e+05 -3.333058e+05 -2.499312e+04
3.776504e+05 -3.747415e+05 -2.247043e+04
3.693733e+05 -3.529960e+05 0.000000e+00
-4.000000e+05 8.695652e+04 0.000000e+00
-3.760516e+05 8.212939e+04 -2.543564e+04
-3.482879e+05 1.253124e+05 -2.574623e+04
-3.665651e+05 9.874016e+04 -5.000000e+04
-3.495547e+05 9.060720e+04 -2.563270e+04
-3.071185e+05 -3.486990e+05 -2.261025e+04
-3.153762e+05 -3.243183e+05 -5.000000e+04
-3.287827e+05 -3.355430e+05 -2.504110e+04
-3.095113e+05 -3.153966e+05 -2.507638e+04
-2.962358e+05 -3.323448e+05 0.000000e+00
-3.357456e+05 -3.422369e+05 0.000000e+00
-2.772919e+05 -3.669732e+05 0.000000e+00
-2.934123e+05 -3.742563e+05 -2.511903e+04
-2.806419e+05 -3.463229e+05 -2.661752e+04
-3.140042e+05 -3.607419e+05 -5.000000e+04
-3.320497e+05 -3.703516e+05 -2.524928e+04
-3.224905e+05 6.841821e+04 -2.756000e+04
-3.000000e+05 4.234958e+04 -2.422604e+04
-3.000000e+05 5.362570e+04 -5.000000e+04
-3.000000e+05 7.749820e+04 -2.479801e+04
3.227610e+05 -1.685566e+05 -2.697912e+04
3.499303e+05 -1.919500e+05 -2.498446e+04
3.500600e+05 -1.567367e+05 -2.546429e+04
3.335574e+05 -1.858748e+05 0.000000e+00
3.000000e+05 -1.659466e+05 0.000000e+00
3.208602e+05 -1.947095e+05 -2.232217e+04
3.000000e+05 -1.806737e+05 -2.506219e+04
3.330650e+05 -1.842018e+05 -5.000000e+04
3.000000e+05 -1.978940e+05 -5.000000e+04
3.000000e+05 -1.638587e+05 -5.000000e+04
-1.949782e+05 -3.787045e+05 -2.503133e+04
-1.713812e+05 -3.663209e+05 -5.000000e+04
-1.725141e+05 -3.772415e+05 -2.530126e+04
-1.913043e+05 -4.000000e+05 -5.000000e+04
-1.972219e+05 -3.510331e+05 -2.499278e+04
-1.739069e+05 -4.000000e+05 -2.478809e+04
-1.716829e+05 -3.668361e+05 0.000000e+00
-1.913043e+05 -4.000000e+05 0.000000e+00
1.358880e+05 -3.243044e+05 -2.504137e+04
1.166322e+05 -3.000000e+05 -2.516475e+04
1.497984e+05 -3.000000e+05 -2.516553e+04
1.333333e+05 -3.000000e+05 -5.000000e+04
1.825802e+05 3.751615e+05 -2.720292e+04
2.119132e+05 3.796036e+05 -2.524922e+04
2.061857e+05 3.668333e+05 0.000000e+00
1.947422e+05 3.503722e+05 -2.524152e+04
1.565217e+05 4.000000e+05 0.000000e+00
1.528807e+05 3.759790e+05 -2.499953e+04
1.739069e+05 4.000000e+05 -2.478809e+04
1.716839e+05 3.668365e+05 0.000000e+00
1.913043e+05 4.000000e+05 0.000000e+00
1.565217e+05 4.000000e+05 -5.000000e+04
1.713714e+05 3.663108e+05 -5.000000e+04
1.613560e+05 3.500277e+05 -2.506640e+04
-8.982230e+04 3.792244e+05 -2.494679e+04
-6.535746e+04 3.800015e+05 -2.495585e+04
-6.848071e+04 3.663195e+05 -5.000000e+04
-8.695652e+04 4.000000e+05 -5.000000e+04
-6.956522e+04 4.000000e+05 -2.478801e+04
-9.132937e+04 3.518806e+05 -2.497956e+04
-8.695652e+04 4.000000e+05 0.000000e+00
-6.863978e+04 3.668364e+05 0.000000e+00
8.983161e+04 -3.792230e+05 -2.494676e+04
8.695652e+04 -4.000000e+05 -5.000000e+04
6.956522e+04 -4.000000e+05 -2.478801e+04
8.695652e+04 -4.000000e+05 0.000000e+00
9.134075e+04 -3.518804e+05 -2.497894e+04
6.864043e+04 -3.668360e+05 0.000000e+00
-1.485035e+05 -3.773486e+05 -2.721498e+04
-1.630495e+05 -3.485427e+05 -2.521974e+04
-1.185212e+05 -3.761066e+05 -2.504756e+04
-1.217391e+05 -4.000000e+05 -5.000000e+04
-1.370985e+05 -3.663236e+05 -5.000000e+04
-1.217391e+05 -4.000000e+05 0.000000e+00
-1.391294e+05 -4.000000e+05 -2.478846e+04
-1.373218e+05 -3.668365e+05 0.000000e+00
-1.565217e+05 -4.000000e+05 0.000000e+00
-1.276844e+05 -3.500075e+05 -2.505733e+04
-3.784905e+05 1.568709e+05 -2.476156e+04
-3.664298e+05 1.337587e+05 -5.000000e+04
-3.514457e+05 1.599418e+05 -2.483113e+04
-4.000000e+05 1.565217e+05 -5.000000e+04
-4.000000e+05 1.391294e+05 -2.478846e+04
-3.668349e+05 1.375908e+05 0.000000e+00
-4.000000e+05 1.565217e+05 0.000000e+00
3.668265e+05 -1.714683e+05 0.000000e+00
4.000000e+05 -1.913043e+05 0.000000e+00
4.000000e+05 -1.739069e+05 -2.478809e+04
4.000000e+05 -1.565217e+05 0.000000e+00
3.763528e+05 1.812702e+05 -2.493822e+04
4.000000e+05 1.565217e+05 0.000000e+00
3.764050e+05 1.528124e+05 -2.490916e+04
4.000000e+05 1.739130e+05 -2.478510e+04
3.668383e+05 1.722952e+05 0.000000e+00
3.797466e+05 2.119345e+05 -2.497186e+04
4.000000e+05 1.913043e+05 -5.000000e+04
3.662642e+05 2.068445e+05 -5.000000e+04
3.507120e+05 1.619053e+05 -2.490325e+04
3.662844e+05 1.729597e+05 -5.000000e+04
4.000000e+05 1.565217e+05 -5.000000e+04
3.776488e+05 -7.900637e+04 -2.735718e+04
3.762845e+05 -4.901174e+04 -2.508786e+04
3.663605e+05 -6.676216e+04 -5.000000e+04
3.502306e+05 -5.807827e+04 -2.511783e+04
4.000000e+05 -5.217391e+04 -5.000000e+04
3.773063e+05 -1.038824e+05 -2.578879e+04
4.000000e+05 -8.695652e+04 0.000000e+00
3.668372e+05 -1.026508e+05 0.000000e+00
4.000000e+05 -5.217391e+04 0.000000e+00
4.000000e+05 -6.956519e+04 -2.478879e+04
3.668380e+05 -6.826645e+04 0.000000e+00
4.000000e+05 -1.043476e+05 -2.478869e+04
-1.666667e+05 -3.000000e+05 -5.000000e+04
-1.833333e+05 -3.000000e+05 -2.518468e+04
-1.933582e+05 -3.216521e+05 -2.503520e+04
-1.657267e+05 -3.213415e+05 -2.506307e+04
-1.666667e+05 -3.000000e+05 0.000000e+00
3.334882e+05 -2.202831e+05 0.000000e+00
3.000000e+05 -1.994599e+05 0.000000e+00
3.000000e+05 -2.085861e+05 -2.501244e+04
-1.859359e+05 -3.331067e+05 -5.000000e+04
-1.862587e+05 -3.335758e+05 0.000000e+00
-4.132523e+04 3.761107e+05 -2.495957e+04
-3.478261e+04 4.000000e+05 -2.478841e+04
-5.217391e+04 4.000000e+05 -5.000000e+04
-1.739130e+04 4.000000e+05 -5.000000e+04
-1.424890e+04 3.757408e+05 -2.497844e+04
-3.421938e+04 3.663190e+05 -5.000000e+04
-5.217391e+04 4.000000e+05 0.000000e+00
-1.739130e+04 4.000000e+05 0.000000e+00
-3.431405e+04 3.668365e+05 0.000000e+00
-2.739007e+04 3.505180e+05 -2.498776e+04
-1.739130e+05 4.000000e+05 -2.478510e+04
-1.528672e+05 3.759826e+05 -2.500255e+04
-1.716148e+05 3.668263e+05 0.000000e+00
-1.825315e+05 3.751689e+05 -2.721318e+04
-1.913043e+05 4.000000e+05 0.000000e+00
-2.059314e+05 3.667832e+05 0.000000e+00
-2.118669e+05 3.796033e+05 -2.526514e+04
-1.612599e+05 3.500460e+05 -2.507149e+04
-1.913043e+05 4.000000e+05 -5.000000e+04
-2.056558e+05 3.663226e+05 -5.000000e+04
-1.712892e+05 3.663242e+05 -5.000000e+04
-1.565217e+05 4.000000e+05 -5.000000e+04
3.507710e+05 -3.071241e+05 -1.983709e+04
3.472371e+05 -2.783609e+05 -2.630278e+04
3.316724e+05 -2.967750e+05 0.000000e+00
3.666108e+05 -2.775848e+05 0.000000e+00
3.309559e+05 -3.255688e+05 -2.698212e+04
3.397681e+05 -3.369212e+05 0.000000e+00
3.744093e+05 -2.934608e+05 -2.492539e+04
3.303054e+05 -2.869393e+05 -5.000000e+04
3.606270e+05 -3.135064e+05 -5.000000e+04
-3.238506e+05 1.781151e+05 -2.284516e+04
-3.335738e+05 1.866432e+05 0.000000e+00
-3.000000e+05 1.673499e+05 0.000000e+00
-3.000000e+05 2.005124e+05 0.000000e+00
-3.242363e+05 2.019112e+05 -2.479758e+04
-3.335722e+05 1.528704e+05 0.000000e+00
-3.219833e+05 1.550144e+05 -2.418889e+04
-3.331119e+05 1.814444e+05 -5.000000e+04
-3.500623e+05 1.947691e+05 -2.492389e+04
3.000000e+05 -1.480457e+05 -2.518612e+04
3.070808e+05 3.546107e+05 -1.714572e+04
2.838715e+05 3.432764e+05 -2.626473e+04
2.962288e+05 3.323792e+05 0.000000e+00
2.772894e+05 3.669850e+05 0.000000e+00
3.214547e+05 3.369143e+05 -2.636251e+04
3.136723e+05 3.607135e+05 -5.000000e+04
2.935138e+05 3.747013e+05 -2.499119e+04
3.357389e+05 3.423035e+05 0.000000e+00
3.310854e+05 3.708053e+05 -2.520548e+04
-3.303425e+05 2.864208e+05 -5.000000e+04
-3.469504e+05 2.817468e+05 -2.677742e+04
-3.300427e+05 3.281790e+05 -2.631692e+04
-3.606526e+05 3.133330e+05 -5.000000e+04
-3.538099e+05 3.084519e+05 -1.787405e+04
-3.749470e+05 2.933940e+05 -2.493585e+04
-3.716865e+05 3.330494e+05 -2.604840e+04
-3.422611e+05 3.357632e+05 0.000000e+00
-3.323575e+05 2.962961e+05 0.000000e+00
-3.669772e+05 2.773495e+05 0.000000e+00
-3.208683e+05 1.285984e+05 -2.543766e+04
-3.000000e+05 1.341874e+05 0.000000e+00
-3.000000e+05 1.457374e+05 -2.479770e+04
-3.331557e+05 1.463574e+05 -5.000000e+04
-3.335717e+05 1.191216e+05 0.000000e+00
-3.000000e+05 1.116890e+05 -2.479816e+04
3.750985e+05 1.731082e+04 -2.495385e+04
3.668370e+05 3.487991e+04 0.000000e+00
3.766226e+05 5.120408e+04 -2.491509e+04
3.486553e+05 3.094323e+04 -2.470062e+04
3.664079e+05 2.208090e+03 -5.000000e+04
3.755591e+05 -1.521008e+04 -2.489784e+04
3.365423e+05 9.969610e+02 -2.491966e+04
3.668382e+05 4.985393e+02 0.000000e+00
4.000000e+05 8.858707e-04 -2.478866e+04
4.000000e+05 1.739130e+04 0.000000e+00
3.664904e+05 3.662308e+04 -5.000000e+04
4.000000e+05 1.739130e+04 -5.000000e+04
4.000000e+05 3.478261e+04 -2.478841e+04
3.241835e+05 -1.338846e+05 -2.511108e+04
3.331162e+05 -1.156285e+05 -5.000000e+04
3.331063e+05 -1.499070e+05 -5.000000e+04
3.000000e+05 -1.298234e+05 -5.000000e+04
3.000000e+05 -1.142814e+05 -2.518156e+04
3.501925e+05 -1.229656e+05 -2.536930e+04
3.335703e+05 -1.518628e+05 0.000000e+00
3.335746e+05 -1.178848e+05 0.000000e+00
3.000000e+05 -1.324332e+05 0.000000e+00
-1.185180e+05 -3.335740e+05 0.000000e+00
-1.333333e+05 -3.000000e+05 0.000000e+00
-1.000000e+05 -3.000000e+05 0.000000e+00
-1.166667e+05 -3.000000e+05 -2.516967e+04
3.767701e+05 8.545747e+04 -2.498937e+04
4.000000e+05 8.695652e+04 -5.000000e+04
3.664910e+05 7.093362e+04 -5.000000e+04
3.664147e+05 1.050627e+05 -5.000000e+04
4.000000e+05 8.695652e+04 0.000000e+00
3.668311e+05 6.925743e+04 0.000000e+00
4.000000e+05 6.956522e+04 -2.478801e+04
3.532003e+05 6.143720e+04 -2.460611e+04
3.529343e+05 9.380645e+04 -2.566405e+04
-6.874474e+04 -3.242435e+05 -2.504036e+04
[...]
CELL_DATA 20058
SCALARS total_strain double 6
LOOKUP_TABLE default
5.230216e-11 1.885301e-10 -5.166123e-11 -3.178928e-10 -5.218298e-12 -2.417661e-11
-1.193703e-10 2.310339e-10 -3.706258e-11 -2.381702e-10 -3.044065e-11 4.606093e-12
1.764624e-10 1.000549e-10 -7.417578e-11 -2.755274e-10 -2.326717e-11 -3.397682e-11
9.605916e-11 1.224789e-10 -5.619749e-11 -2.982166e-10 -1.830314e-11 1.747635e-11
-6.900880e-11 2.123866e-10 -5.060519e-11 -2.210889e-10 -2.088701e-11 -2.621126e-12
-9.627854e-13 1.707159e-10 -5.332490e-11 -2.970681e-10 -3.360112e-11 -1.032741e-11
8.149703e-11 1.364562e-10 -5.447864e-11 -2.447710e-10 -2.345490e-11 -8.483214e-12
-4.171916e-10 -1.517813e-09 3.390972e-10 1.101376e-09 1.428355e-10 1.369593e-11
-8.023484e-10 -1.379246e-09 4.453804e-10 1.414997e-09 3.598676e-10 -1.652328e-11
-4.426361e-10 -1.452668e-09 4.441962e-10 1.029314e-09 2.653258e-10 -1.411138e-11
-9.103225e-10 -6.603280e-10 4.293872e-10 1.006363e-09 2.221308e-10 -6.652487e-11
-7.494605e-10 -1.323826e-09 4.116472e-10 1.253871e-09 3.499420e-10 -1.091440e-10
-5.641461e-10 -1.308304e-09 4.489604e-10 1.123920e-09 1.762523e-10 2.349021e-11
9.719674e-10 -4.917282e-10 -1.362306e-10 -1.272626e-11 3.677669e-12 1.540634e-11
8.846799e-10 -5.075110e-10 -1.410045e-10 2.521092e-11 7.725001e-13 -1.069544e-11
8.898482e-10 -4.928796e-10 -1.301466e-10 3.605879e-11 1.583594e-11 -3.187228e-12
-1.031053e-10 -1.679538e-09 4.514864e-10 -4.600786e-10 -2.202216e-11 -9.350801e-11
-5.917782e-10 -4.877672e-10 7.168399e-11 1.581215e-10 -1.721001e-11 -5.864198e-12
-2.867762e-11 -1.706455e-09 4.648391e-10 -2.756449e-10 -4.404477e-12 2.207325e-11
9.884249e-11 -1.679368e-09 4.526188e-10 -4.538832e-10 -2.131251e-11 -6.149947e-11
2.421059e-10 -1.710975e-09 4.810241e-10 -2.430123e-10 -7.870482e-12 -5.058365e-11
1.782301e-10 -2.030102e-09 4.816394e-10 -3.858198e-10 -5.361628e-12 -4.959893e-11
-2.986340e-10 3.780327e-10 -1.941292e-11 -1.768736e-10 -1.829781e-11 -1.024525e-11
3.222800e-10 1.887265e-09 -9.278782e-10 -8.903123e-10 2.288253e-10 -4.955657e-10
-2.214975e-10 3.152691e-10 -1.978950e-11 -1.514555e-10 -1.225048e-11 9.811041e-12
-3.900738e-10 3.860903e-10 -1.274258e-11 -1.334399e-10 -6.470824e-12 -1.752842e-11
-3.622542e-10 3.810023e-10 -9.463541e-12 -1.256191e-10 -1.049399e-11 -1.530776e-11
-2.895160e-10 3.859633e-10 -9.182433e-12 -1.000617e-10 -6.218359e-12 -7.442491e-12
-3.179865e-10 3.828866e-10 -1.018241e-11 -1.025271e-10 -6.474377e-12 1.329586e-11
2.115130e-11 2.012133e-10 -6.718959e-11 -2.016187e-10 -4.028289e-11 -1.216749e-12
8.695622e-11 1.082427e-10 -5.477041e-11 -1.326872e-10 -5.228817e-12 1.072342e-11
3.436273e-11 7.441248e-11 -6.930412e-11 -2.188274e-10 -1.199393e-11 1.070255e-11
6.328142e-10 -2.380429e-09 -2.750276e-10 6.357029e-10 -5.380218e-10 4.675205e-11
7.646759e-10 -2.289360e-09 -2.285114e-10 4.225672e-10 -1.795790e-10 5.452400e-11
6.441776e-10 -2.512753e-09 -1.719229e-10 6.019927e-10 -2.823812e-10 8.755877e-11
7.774070e-10 -3.929648e-10 -1.321405e-10 -1.434513e-10 -9.762857e-12 4.913525e-11
8.311938e-10 -3.755809e-10 -1.343996e-10 -1.222307e-10 8.767986e-13 1.510592e-11
7.378511e-10 -3.437060e-10 -1.215157e-10 -1.627226e-10 -1.627909e-11 1.388512e-11
5.768364e-10 -2.968714e-10 -1.204724e-10 -1.526872e-10 -9.276913e-12 -3.463729e-12
-4.843876e-10 2.917995e-10 7.706857e-11 3.882161e-11 7.630646e-12 3.619061e-11
7.849339e-10 -3.723122e-10 -1.280611e-10 -1.173432e-10 -1.357575e-11 4.902478e-11
-8.734224e-11 1.619593e-10 -2.625628e-09 1.096281e-09 -1.021812e-09 6.830225e-10
6.568577e-10 -2.869058e-10 -1.325029e-10 -1.594985e-10 -2.806016e-12 -3.534284e-12
-6.828746e-10 2.688418e-10 1.328431e-10 4.114820e-11 1.926392e-11 -1.612743e-11
-6.882086e-10 2.864846e-10 1.249802e-10 3.298251e-11 3.665845e-12 -1.534239e-11
-6.640457e-10 2.800196e-10 1.161888e-10 2.655742e-11 1.052747e-11 -2.516432e-12
-6.972605e-10 3.089689e-10 1.240745e-10 4.516876e-11 1.576428e-11 -1.956135e-11
-7.057450e-10 3.193847e-10 1.211928e-10 2.439365e-11 -4.437839e-13 -1.847675e-12
3.510962e-09 2.119340e-10 -2.443135e-10 1.712648e-09 2.679652e-10 1.786427e-10
9.194601e-10 -3.330682e-09 6.758585e-10 9.273915e-11 2.220415e-16 -1.692468e-11
4.867360e-09 -7.751906e-10 -5.120193e-11 1.727160e-09 3.138804e-10 1.128552e-09
1.746149e-09 3.197154e-10 -8.053151e-10 1.676132e-09 -2.013283e-10 -1.951108e-10
3.330873e-09 2.991438e-10 -3.705716e-10 1.904781e-09 5.332033e-10 4.097005e-10
3.778333e-09 4.035878e-10 -3.130380e-10 2.573007e-09 5.961954e-10 8.919241e-10
5.287899e-10 1.328342e-09 -3.545152e-09 8.757755e-10 -4.301113e-10 2.386074e-10
5.852943e-09 -2.244949e-09 2.051577e-10 -4.349991e-10 1.657385e-11 3.669518e-10
5.125711e-09 -2.513497e-09 7.498568e-10 3.861058e-10 2.901738e-11 4.203124e-11
5.675935e-09 -2.610668e-09 1.205134e-10 -1.763967e-10 2.619234e-10 2.150853e-10
5.608785e-09 -2.712756e-09 6.423120e-10 -2.439237e-10 -1.418288e-10 9.981192e-11
5.606751e-09 -2.708291e-09 6.449214e-10 2.587188e-10 1.342880e-10 1.016276e-10
5.746088e-09 -2.780727e-09 1.011911e-09 -1.365547e-10 1.106044e-10 3.344276e-10
4.766289e-09 -1.757060e-09 9.257088e-10 -1.605755e-09 -3.310826e-10 1.292704e-09
4.094544e-09 -1.553994e-09 1.031941e-09 -1.304726e-09 -2.057609e-10 8.451284e-10
3.993119e-09 -1.506502e-09 7.283107e-10 -1.445714e-09 -6.131108e-11 1.037860e-09
6.382139e-09 -2.729024e-09 1.053962e-09 -7.013152e-10 6.620582e-11 2.211443e-09
6.220251e-09 -2.724416e-09 3.044110e-09 -7.081310e-10 -4.557987e-11 2.024448e-09
4.831017e-09 -2.060389e-09 1.031323e-09 -1.382296e-09 -3.082991e-10 7.066399e-10
4.777858e-09 -2.313752e-09 1.865185e-09 -1.506228e-09 -4.977524e-10 5.286270e-10
1.102273e-09 7.534184e-10 -3.061889e-10 -1.213791e-09 -7.798384e-11 -7.256529e-12
3.057393e-09 6.655561e-10 1.763372e-10 -1.532474e-09 -2.107414e-10 9.690238e-10
3.861352e-09 -4.765918e-10 -2.711609e-12 -1.292021e-09 -2.337161e-10 1.011797e-09
1.310013e-09 1.188023e-10 2.141094e-10 -9.926382e-10 -2.038301e-10 4.306727e-10
2.688179e-09 -6.079391e-10 -3.580243e-10 -8.984841e-10 -7.949669e-12 3.492909e-10
-2.359126e-10 3.324034e-10 -2.435585e-11 -1.011475e-10 -1.133099e-11 1.061728e-11
-1.936140e-10 3.190104e-10 -2.837020e-11 -1.323996e-10 -2.159539e-11 -6.260270e-12
-7.814549e-11 2.644747e-10 -4.621659e-11 -1.338347e-10 -1.816947e-11 -9.992451e-12
-1.823715e-10 2.513589e-10 -3.808243e-11 -9.073764e-11 -2.112643e-11 -8.940182e-12
-3.646954e-10 2.256986e-10 4.361933e-11 1.208922e-11 1.491196e-11 -7.835010e-12
-4.204255e-10 2.641904e-10 4.843281e-11 1.994405e-12 1.077560e-11 3.783196e-12
-3.605354e-10 1.481490e-09 -2.244889e-09 5.766893e-10 -2.329024e-10 1.574875e-10
-4.461329e-10 2.672929e-10 5.468292e-11 3.010947e-11 1.692890e-11 1.867606e-11
-4.215668e-10 2.709237e-10 4.614131e-11 4.527156e-11 1.348810e-11 -4.405698e-12
-3.927383e-10 2.415108e-10 4.695377e-11 7.999423e-11 2.092759e-11 1.501355e-11
-3.527809e-10 1.978204e-10 4.397771e-11 4.407052e-11 1.170752e-11 1.785905e-12
-1.668524e-09 2.105733e-09 5.142766e-10 7.561617e-10 -4.742617e-10 -6.674761e-11
-3.791545e-10 2.817711e-10 4.593015e-11 7.397727e-11 1.134781e-11 -5.460077e-12
-8.644125e-10 1.330390e-09 -1.607076e-09 1.660031e-10 -2.776097e-10 3.133167e-10
-9.295196e-10 -9.644952e-10 3.698659e-10 7.693419e-10 1.663141e-10 -4.425149e-11
-1.169324e-09 -6.994512e-10 4.208025e-10 6.093441e-10 8.697665e-11 -4.803513e-11
-1.167570e-09 -5.532668e-10 3.566709e-10 6.352598e-10 1.458129e-10 -5.340134e-11
-1.288423e-09 -7.318524e-10 4.250897e-10 8.332657e-10 2.413654e-10 -2.595452e-11
-9.094734e-10 -6.445582e-10 1.783276e-10 9.939567e-10 2.965239e-10 -5.180822e-11
-1.304583e-10 2.725908e-10 -4.468248e-11 -1.987761e-10 -1.973000e-11 -1.990696e-11
-1.908536e-10 3.076521e-10 -2.898182e-11 -1.294086e-10 -1.657713e-11 -9.222401e-12
-2.031069e-10 2.884755e-10 -3.072875e-11 -8.419416e-11 5.527205e-12 -2.678302e-12
-1.336073e-10 2.395486e-10 -3.919620e-11 -1.215196e-10 -2.512569e-11 -1.114703e-11
-1.205160e-10 2.435776e-10 -4.438538e-11 -2.024105e-10 -4.032330e-12 -2.749867e-11
-1.533014e-10 2.751586e-10 -3.290257e-11 -1.217315e-10 -2.426947e-13 -2.607625e-11
-1.606486e-09 1.278480e-10 2.138012e-10 -7.205501e-10 -5.775535e-10 -1.465868e-10
-1.671786e-09 6.595018e-10 -4.043033e-11 -4.873630e-10 -3.900409e-10 -1.098861e-10
-1.498133e-09 -2.110081e-10 1.521432e-10 -6.670851e-10 -5.807517e-10 -1.907002e-10
-1.533552e-09 1.215561e-10 3.072476e-11 -7.250760e-10 -5.435903e-10 -1.177916e-10
-1.634355e-09 3.494876e-10 -1.409561e-10 -7.585492e-10 -5.682023e-10 -2.431209e-10
5.481199e-09 -1.883052e-09 -5.828400e-10 1.549834e-10 1.242958e-10 2.891048e-10
5.481765e-09 -1.912559e-09 -2.426148e-11 1.517307e-10 9.411794e-11 2.624197e-10
2.367701e-09 3.933742e-10 -5.284744e-10 4.699685e-11 3.050540e-10 1.551250e-10
6.233938e-09 -1.921321e-09 -6.690102e-10 9.978307e-11 -5.785394e-11 8.142982e-10
5.828011e-09 -1.172822e-09 -9.050709e-10 7.717881e-10 2.593996e-10 9.466306e-10
5.196908e-09 -1.217455e-09 -3.690461e-10 -2.014222e-11 2.071221e-11 1.973823e-10
4.695798e-09 -1.327132e-09 -4.603615e-10 5.120796e-10 -1.447464e-11 3.790576e-10
-1.339732e-09 -2.914424e-10 2.780434e-10 2.551155e-10 2.232222e-10 -9.395507e-11
-1.205104e-09 -2.808864e-10 5.649969e-11 4.909375e-10 1.740348e-10 -1.089027e-10
-1.184655e-09 -2.540919e-10 2.992038e-10 5.762527e-10 3.313834e-10 -2.159289e-11
-1.980577e-09 2.160456e-09 -1.199202e-10 7.119315e-10 1.048873e-10 2.935146e-10
-9.473826e-10 -9.586714e-10 3.173879e-10 6.490413e-10 2.088866e-10 -7.450712e-11
-1.163408e-09 -6.794458e-10 3.631302e-10 3.119847e-10 2.018563e-10 2.384670e-11
-4.596377e-10 2.662039e-10 5.766188e-11 6.198242e-11 1.161982e-11 1.829703e-11
-4.845440e-10 2.936336e-10 5.873435e-11 4.952794e-11 7.182699e-12 -3.997913e-13
-3.409983e-10 2.020570e-10 4.516254e-11 3.374367e-11 1.845679e-11 -2.784706e-11
-5.396221e-10 3.018803e-10 5.972334e-11 3.131162e-11 1.456923e-11 -1.553208e-11
-4.268621e-10 2.618119e-10 6.011791e-11 6.923484e-11 8.619327e-12 -2.253753e-11
-4.590124e-10 2.735223e-10 6.650858e-11 8.280299e-11 1.729775e-11 -1.113820e-11
-9.160596e-10 2.573699e-09 -1.750254e-09 -2.260800e-09 4.070162e-10 5.851519e-10
-7.765093e-10 2.902799e-09 5.068226e-10 -2.509722e-09 3.664159e-10 3.243202e-10
-3.146802e-10 2.043625e-09 7.033343e-10 -2.541746e-09 4.207093e-10 1.050777e-10
-1.309628e-10 2.943157e-10 -2.394529e-11 -4.371188e-10 2.430500e-12 1.370837e-11
2.069924e-10 1.568324e-09 5.643526e-10 -2.882844e-09 4.295756e-10 1.023409e-11
-6.704143e-10 2.099292e-09 3.932374e-10 -2.681043e-09 4.191429e-10 3.581688e-10
7.925447e-10 -3.945970e-10 -1.317251e-10 -8.309486e-11 -1.449485e-11 1.392220e-12
8.447216e-10 -4.330906e-10 -1.303873e-10 -8.182699e-11 -5.011491e-12 1.492806e-11
7.078516e-10 -3.611814e-10 -1.231697e-10 -1.541542e-10 -7.182283e-12 -1.784772e-11
8.672809e-10 -4.473462e-10 -1.369620e-10 -1.192000e-10 -5.211248e-12 -1.169627e-12
8.393068e-10 -3.585421e-10 -1.332230e-10 -1.695691e-10 -2.347161e-11 8.253731e-12
8.212697e-10 -4.422938e-10 -1.268717e-10 -1.035163e-10 -1.939121e-11 7.852774e-12
-8.999486e-10 5.119638e-10 -1.416218e-10 -2.302438e-10 -2.915446e-11 -3.715450e-11
-8.593197e-10 3.586198e-10 1.314904e-11 -1.869636e-10 -1.363087e-11 -3.055156e-11
-8.790195e-10 4.719434e-10 -5.252243e-11 -2.596539e-10 -7.864309e-11 1.389333e-12
-8.717269e-10 3.519123e-10 4.018119e-11 -1.963865e-10 -1.003997e-11 -2.060285e-11
9.070105e-10 -4.753093e-10 -1.379798e-10 1.875400e-11 3.567091e-12 1.606715e-12
8.954926e-10 -4.802061e-10 -1.341105e-10 3.668833e-11 3.009148e-12 1.824385e-11
8.381296e-10 -4.644120e-10 -1.341203e-10 8.583215e-11 -6.596911e-13 -6.641021e-12
9.525682e-10 -5.112110e-10 -1.432214e-10 1.018934e-10 7.370216e-13 -1.644351e-11
9.629666e-10 -5.252101e-10 -1.368399e-10 4.609206e-11 1.605787e-11 1.195133e-11
9.192114e-10 -4.878219e-10 -1.394529e-10 1.749160e-11 -4.595802e-12 1.381317e-11
8.953265e-10 -4.847575e-10 -1.365237e-10 -5.162065e-12 3.727546e-12 1.046696e-11
9.170202e-10 -5.050185e-10 -1.389657e-10 1.571598e-11 1.012104e-11 9.792167e-14
1.016042e-09 -5.053631e-10 -1.342135e-10 1.124374e-11 8.559237e-12 2.641654e-11
-3.243639e-10 2.795153e-09 -3.527009e-09 1.007863e-10 -4.055672e-10 2.640929e-10
-3.483902e-10 2.236513e-10 4.769074e-11 5.106471e-11 -2.207345e-12 6.066814e-12
-3.746825e-10 2.256542e-10 5.093259e-11 1.231228e-10 1.525891e-11 -2.008838e-11
-3.587983e-10 2.082539e-10 3.903633e-11 1.192686e-10 -1.043611e-14 -2.848743e-11
-3.961338e-10 2.368017e-10 4.998801e-11 7.080869e-11 2.171596e-13 -2.442913e-11
-4.482921e-10 2.556471e-10 4.794298e-11 9.515499e-11 1.022049e-11 -7.688516e-12
-4.245493e-10 2.585845e-10 5.567746e-11 8.394385e-11 1.300365e-11 -8.589685e-12
5.662981e-10 -7.615486e-10 -2.549842e-09 -2.101724e-09 4.642785e-10 1.354100e-10
-7.420246e-10 7.273611e-10 -1.289867e-09 -1.876884e-09 5.090035e-10 3.638336e-10
-1.594519e-09 1.107133e-09 -6.813767e-10 -8.051776e-10 2.944023e-11 4.187800e-11
-7.161673e-10 -5.834178e-11 -1.298901e-09 -1.873449e-09 3.948029e-10 3.783221e-10
1.736942e-10 -6.015446e-10 -1.810207e-09 -2.063801e-09 1.017797e-10 -1.315457e-10
-4.029024e-10 -1.946558e-10 -1.420796e-09 -1.952989e-09 4.435947e-10 3.776491e-10
1.083430e-09 -2.754303e-09 -8.604770e-10 -1.034538e-09 -5.681574e-10 -8.287460e-11
7.005774e-10 -2.711655e-09 -4.502425e-10 -6.850469e-10 -4.662343e-10 -1.062797e-10
7.159824e-10 -2.376238e-09 -8.188517e-10 -7.924724e-10 -5.053820e-10 -9.530931e-12
8.271011e-10 -2.159852e-09 -1.379693e-09 -1.220838e-09 -3.934593e-10 -1.640967e-10
7.176784e-10 -2.369743e-09 -3.760743e-10 -7.891106e-10 -2.324541e-10 1.095537e-10
4.229692e-10 -2.253631e-09 -6.507799e-10 -8.156666e-10 -2.841551e-10 -1.778706e-10
5.763034e-11 1.530447e-10 -6.293899e-11 -2.475575e-10 -3.579448e-11 -1.920908e-11
5.108447e-11 1.327454e-10 -5.300160e-11 -1.519842e-10 5.075940e-13 -9.563239e-12
1.620788e-10 1.092868e-10 -6.680345e-11 -1.973470e-10 -6.077805e-12 2.306988e-12
1.682743e-10 5.977085e-11 -7.730794e-11 -2.302173e-10 -2.924794e-11 -1.614739e-11
-1.415725e-09 -1.744205e-10 -4.085192e-10 -7.198451e-10 -3.876734e-10 -2.033026e-10
-1.482954e-09 2.865326e-10 -5.555076e-10 -7.090850e-10 -3.863394e-10 -8.663518e-11
-1.498075e-09 8.051337e-11 -2.072986e-10 -4.959979e-10 -1.869800e-10 -1.073053e-10
-1.207467e-09 -1.213749e-10 -3.891314e-10 -8.251457e-10 8.353540e-12 4.115308e-11
-2.531695e-10 3.648370e-10 -2.733280e-11 -3.827294e-11 -9.049428e-12 -5.854310e-12
-2.275757e-10 3.137330e-10 -2.849498e-11 -1.131650e-10 -2.242340e-11 -2.794931e-12
-2.412834e-10 3.651230e-10 -3.066325e-11 -6.919976e-11 -9.378776e-12 -1.271411e-11
-8.706174e-10 1.336671e-09 -2.630292e-09 -1.518654e-09 -1.903084e-10 -1.275278e-10
-3.155503e-10 3.755423e-10 -2.737521e-11 -7.966294e-11 -7.837619e-12 -1.684652e-11
3.847669e-10 -2.130610e-09 4.965321e-10 -5.469638e-10 7.775158e-11 -3.367176e-11
6.568808e-10 -2.806383e-09 4.899310e-10 -5.086868e-10 -1.199185e-11 -2.253114e-12
4.271177e-10 -2.247043e-09 3.595320e-10 -6.294255e-10 1.534760e-10 6.930843e-13
6.594554e-10 -2.372429e-09 3.459335e-10 -6.298916e-10 2.630873e-11 -1.619843e-11
6.541472e-10 -2.563648e-09 4.237313e-10 -5.796628e-10 9.461654e-11 -5.752066e-12
4.314229e-10 -2.030576e-10 -8.312107e-11 1.665357e-10 9.550583e-12 5.072032e-11
-1.104317e-09 -1.063896e-09 2.909295e-10 -5.850456e-10 -2.755617e-10 -1.004192e-10
-7.004317e-10 -8.700063e-10 4.412579e-10 -8.265593e-10 -4.456591e-11 -1.025424e-10
-7.059455e-10 -1.182668e-09 2.526879e-10 -5.129226e-10 -1.453400e-10 -9.979791e-11
-1.024723e-09 -7.087895e-10 4.446603e-10 -4.067476e-10 -2.490873e-10 2.905987e-11
-1.052952e-09 -1.095774e-09 4.141780e-10 -6.120553e-10 -3.191450e-10 -2.083173e-11
-6.920660e-10 -1.788161e-09 1.792255e-11 -7.302900e-10 -5.758942e-10 -1.733559e-10
-3.476472e-10 1.942437e-10 2.855405e-11 4.566481e-11 2.152256e-11 1.029066e-11
-7.159917e-10 6.324008e-10 -1.390945e-10 -6.200176e-10 -1.157874e-11 -6.322232e-11
-6.370673e-10 7.430581e-10 -1.832428e-10 -8.145314e-10 -1.216545e-10 7.218248e-11
-8.875993e-10 6.089702e-10 -1.947087e-10 -4.244809e-10 -6.891265e-11 3.474532e-11
-6.801857e-10 6.826579e-10 -2.025051e-10 -5.662786e-10 -2.770251e-11 -4.192602e-11
-7.364522e-10 8.537180e-10 -2.333880e-10 -7.481149e-10 -9.898060e-11 1.275702e-10
-1.266915e-08 -6.465432e-09 2.930412e-08 -5.974500e-10 -1.688726e-10 -1.236318e-10
-9.919915e-09 -4.076008e-09 2.521344e-08 -2.929838e-09 -3.031165e-09 1.250786e-09
-1.256163e-08 -6.777100e-09 2.915674e-08 2.080687e-10 2.073407e-10 -2.764711e-10
-1.193076e-08 -3.499238e-09 3.798357e-08 1.223149e-09 -3.517019e-09 -2.699710e-09
-1.157997e-08 -6.012140e-09 3.046826e-08 -8.953719e-10 -8.880236e-10 9.076544e-10
-1.808669e-09 1.484046e-09 -3.093557e-10 7.063031e-10 5.462391e-10 -2.934776e-10
-1.746466e-09 1.421693e-09 -3.049174e-10 6.960897e-10 5.503367e-10 -3.101471e-10
-2.073299e-09 1.620061e-09 -4.488259e-10 1.531009e-09 7.094079e-10 -5.989561e-10
2.705658e-11 1.301625e-12 -5.599965e-12 1.927019e-10 3.106981e-11 -1.432188e-12
-2.053125e-09 2.215886e-09 -9.735599e-10 1.154087e-09 7.543411e-10 -9.668983e-10
-1.576129e-09 1.631498e-09 -2.320424e-10 3.832958e-10 4.248479e-10 -9.763365e-11
-1.359622e-09 2.184425e-09 -7.242806e-10 7.941575e-11 4.736160e-10 -4.065359e-10
5.821368e-10 -2.467004e-10 -8.644019e-11 3.581758e-10 -6.446727e-12 6.072439e-12
6.305001e-10 -3.143961e-10 -9.308643e-11 3.352732e-10 -1.513933e-11 -2.534417e-11
5.516494e-10 -2.478986e-10 -8.407319e-11 2.581600e-10 -1.153100e-11 -3.012479e-12
4.435066e-10 -2.016325e-10 -6.775958e-11 3.069869e-10 -4.930016e-12 1.928346e-12
2.234146e-10 -2.153958e-09 -2.256781e-10 4.241747e-10 -1.598486e-10 5.950779e-11
-1.773903e-10 -1.258147e-09 -2.704469e-10 5.455793e-10 -8.393486e-11 8.376922e-11
1.972158e-10 -1.563499e-09 -1.462643e-10 4.015257e-10 -1.142362e-10 -7.410572e-12
-1.712043e-09 3.166375e-09 -1.610982e-09 -1.380741e-09 7.100874e-10 7.209255e-10
-1.684319e-10 -1.187480e-09 -7.568199e-10 7.900822e-10 -3.257381e-10 1.151564e-10
-1.598079e-10 -1.158975e-09 -4.636651e-10 7.614067e-10 -4.335359e-10 2.717200e-10
2.219356e-10 -1.678883e-09 -3.630114e-10 4.685585e-10 4.661760e-11 -7.901282e-11
4.477698e-10 -1.871840e-09 -2.929859e-10 6.691389e-10 -3.294229e-10 2.417899e-10
2.254581e-10 -2.343310e-09 -1.806766e-11 7.336466e-10 -4.392463e-10 2.448285e-10
3.064429e-10 -1.818273e-09 -3.847118e-10 7.719821e-10 -4.419996e-10 7.640331e-11
-6.464691e-10 2.680434e-10 1.214082e-10 5.903672e-11 5.750955e-12 3.047701e-13
-6.486135e-10 2.779466e-10 1.164979e-10 7.484421e-11 9.832579e-12 -1.958756e-11
-6.494832e-10 2.533866e-10 1.199894e-10 2.884620e-11 6.938811e-12 -6.929402e-12
4.437499e-10 -2.016238e-10 -7.463630e-11 3.070395e-10 8.242074e-12 4.118306e-11
3.648370e-10 -1.605360e-10 -6.536549e-11 2.353400e-10 1.228151e-11 -4.263456e-11
3.814993e-10 -1.502620e-10 -5.776402e-11 3.466745e-10 2.197798e-11 4.220402e-11
7.419807e-10 -3.300897e-10 -1.315446e-10 -1.926428e-10 -7.112755e-12 5.551781e-12
7.342482e-10 -3.537418e-10 -1.257328e-10 -2.074556e-10 -2.590703e-11 -5.544454e-13
8.782823e-10 -3.948069e-10 -1.353524e-10 -2.265020e-10 -1.405631e-11 1.721058e-11
7.464396e-10 -3.141423e-10 -1.373723e-10 -2.040395e-10 1.257594e-11 2.019607e-12
8.028778e-10 -3.797096e-10 -1.321370e-10 -9.456336e-11 3.292477e-12 -2.512091e-11
9.048460e-10 -4.363880e-10 -1.418115e-10 -1.098104e-10 -3.038042e-12 1.696587e-11
8.789556e-10 -4.602527e-10 -1.386571e-10 -1.391458e-10 6.612488e-13 -3.257838e-12
2.432634e-09 2.880975e-10 1.073169e-09 2.905180e-09 1.100562e-10 9.483558e-10
2.939972e-09 -1.472867e-09 6.222855e-09 3.462880e-09 7.997510e-10 6.972569e-10
3.649827e-09 -1.474566e-09 1.981173e-09 2.823688e-09 6.354734e-10 6.276095e-10
2.812465e-09 -5.649690e-10 2.724600e-09 2.813869e-09 4.105107e-10 1.182132e-09
9.930687e-10 -4.255346e-10 -1.668479e-10 -2.662284e-10 8.083645e-12 2.581224e-11
7.484573e-10 -3.522617e-10 -1.282210e-10 -3.274208e-10 4.879874e-12 3.245182e-11
9.304806e-10 -4.416889e-10 -1.563194e-10 -3.250515e-10 7.217782e-12 -1.738587e-11
8.132544e-10 -3.576983e-10 -1.331926e-10 -2.724670e-10 1.010036e-11 -1.529421e-11
-1.129926e-09 -3.903695e-10 -4.153611e-10 -8.987548e-10 -2.038123e-10 -6.231947e-11