# vtk DataFile Version 2.0
Simplicial Mesh Example
ASCII
DATASET UNSTRUCTURED_GRID
POINTS 955 double
1.739130e+04 -4.000000e+05 0.000000e+00
3.431474e+04 -3.668361e+05 0.000000e+00
5.217391e+04 -4.000000e+05 0.000000e+00
-3.668348e+05 1.033122e+05 0.000000e+00
3.693733e+05 -3.529960e+05 0.000000e+00
-4.000000e+05 8.695652e+04 0.000000e+00
-2.962358e+05 -3.323448e+05 0.000000e+00
-3.357456e+05 -3.422369e+05 0.000000e+00
-2.772919e+05 -3.669732e+05 0.000000e+00
3.335574e+05 -1.858748e+05 0.000000e+00
3.000000e+05 -1.659466e+05 0.000000e+00
-1.716829e+05 -3.668361e+05 0.000000e+00
-1.913043e+05 -4.000000e+05 0.000000e+00
2.061857e+05 3.668333e+05 0.000000e+00
1.565217e+05 4.000000e+05 0.000000e+00
1.716839e+05 3.668365e+05 0.000000e+00
1.913043e+05 4.000000e+05 0.000000e+00
-8.695652e+04 4.000000e+05 0.000000e+00
-6.863978e+04 3.668364e+05 0.000000e+00
8.695652e+04 -4.000000e+05 0.000000e+00
6.864043e+04 -3.668360e+05 0.000000e+00
-1.217391e+05 -4.000000e+05 0.000000e+00
-1.373218e+05 -3.668365e+05 0.000000e+00
-1.565217e+05 -4.000000e+05 0.000000e+00
-3.668349e+05 1.375908e+05 0.000000e+00
-4.000000e+05 1.565217e+05 0.000000e+00
3.668265e+05 -1.714683e+05 0.000000e+00
4.000000e+05 -1.913043e+05 0.000000e+00
4.000000e+05 -1.565217e+05 0.000000e+00
4.000000e+05 1.565217e+05 0.000000e+00
3.668383e+05 1.722952e+05 0.000000e+00
4.000000e+05 -8.695652e+04 0.000000e+00
3.668372e+05 -1.026508e+05 0.000000e+00
4.000000e+05 -5.217391e+04 0.000000e+00
3.668380e+05 -6.826645e+04 0.000000e+00
-1.666667e+05 -3.000000e+05 0.000000e+00
3.334882e+05 -2.202831e+05 0.000000e+00
3.000000e+05 -1.994599e+05 0.000000e+00
-1.862587e+05 -3.335758e+05 0.000000e+00
-5.217391e+04 4.000000e+05 0.000000e+00
-1.739130e+04 4.000000e+05 0.000000e+00
-3.431405e+04 3.668365e+05 0.000000e+00
-1.716148e+05 3.668263e+05 0.000000e+00
-1.913043e+05 4.000000e+05 0.000000e+00
-2.059314e+05 3.667832e+05 0.000000e+00
3.316724e+05 -2.967750e+05 0.000000e+00
3.666108e+05 -2.775848e+05 0.000000e+00
3.397681e+05 -3.369212e+05 0.000000e+00
-3.335738e+05 1.866432e+05 0.000000e+00
-3.000000e+05 1.673499e+05 0.000000e+00
-3.000000e+05 2.005124e+05 0.000000e+00
-3.335722e+05 1.528704e+05 0.000000e+00
2.962288e+05 3.323792e+05 0.000000e+00
2.772894e+05 3.669850e+05 0.000000e+00
3.357389e+05 3.423035e+05 0.000000e+00
-3.422611e+05 3.357632e+05 0.000000e+00
-3.323575e+05 2.962961e+05 0.000000e+00
-3.669772e+05 2.773495e+05 0.000000e+00
-3.000000e+05 1.341874e+05 0.000000e+00
-3.335717e+05 1.191216e+05 0.000000e+00
3.668370e+05 3.487991e+04 0.000000e+00
3.668382e+05 4.985393e+02 0.000000e+00
4.000000e+05 1.739130e+04 0.000000e+00
3.335703e+05 -1.518628e+05 0.000000e+00
3.335746e+05 -1.178848e+05 0.000000e+00
3.000000e+05 -1.324332e+05 0.000000e+00
-1.185180e+05 -3.335740e+05 0.000000e+00
-1.333333e+05 -3.000000e+05 0.000000e+00
-1.000000e+05 -3.000000e+05 0.000000e+00
4.000000e+05 8.695652e+04 0.000000e+00
3.668311e+05 6.925743e+04 0.000000e+00
-6.666667e+04 -3.000000e+05 0.000000e+00
-8.466381e+04 -3.335739e+05 0.000000e+00
-5.081027e+04 -3.335738e+05 0.000000e+00
-1.092350e+01 -3.668362e+05 0.000000e+00
-1.523098e+05 3.335679e+05 0.000000e+00
-1.666667e+05 3.000000e+05 0.000000e+00
-1.861609e+05 3.335431e+05 0.000000e+00
-1.184568e+05 3.335728e+05 0.000000e+00
-1.333333e+05 3.000000e+05 0.000000e+00
-3.668344e+05 6.903915e+04 0.000000e+00
-4.000000e+05 5.217391e+04 0.000000e+00
-3.668332e+05 3.476756e+04 0.000000e+00
3.667880e+05 2.064991e+05 0.000000e+00
4.000000e+05 1.913043e+05 0.000000e+00
4.000000e+05 2.260870e+05 0.000000e+00
3.668383e+05 -3.388371e+04 0.000000e+00
1.695789e+04 3.335742e+05 0.000000e+00
3.333333e+04 3.000000e+05 0.000000e+00
5.081153e+04 3.335742e+05 0.000000e+00
-6.866241e+04 -3.668363e+05 0.000000e+00
-5.217391e+04 -4.000000e+05 0.000000e+00
-3.433659e+04 -3.668363e+05 0.000000e+00
8.466523e+04 3.335742e+05 0.000000e+00
6.666667e+04 3.000000e+05 0.000000e+00
-3.650927e+05 -2.750990e+05 0.000000e+00
1.373228e+05 3.668367e+05 0.000000e+00
-1.029893e+05 -3.668364e+05 0.000000e+00
-2.061853e+05 -3.668319e+05 0.000000e+00
3.679246e+05 -3.150758e+05 0.000000e+00
4.000000e+05 -2.956522e+05 0.000000e+00
-3.668488e+05 -6.807684e+04 0.000000e+00
-3.668495e+05 -1.024032e+05 0.000000e+00
-3.777286e+05 3.768122e+05 0.000000e+00
-3.731516e+05 3.486385e+05 0.000000e+00
8.460407e+04 -3.335732e+05 0.000000e+00
1.000000e+05 -3.000000e+05 0.000000e+00
1.184575e+05 -3.335722e+05 0.000000e+00
-4.000000e+05 -2.608696e+05 0.000000e+00
-3.668282e+05 4.980022e+02 0.000000e+00
3.000000e+05 1.620150e+03 0.000000e+00
1.523100e+05 -3.335678e+05 0.000000e+00
1.666667e+05 -3.000000e+05 0.000000e+00
1.861576e+05 -3.335456e+05 0.000000e+00
-2.411432e+05 -3.668207e+05 0.000000e+00
-2.260870e+05 -4.000000e+05 0.000000e+00
-3.328022e+05 -2.535374e+05 0.000000e+00
2.260870e+05 4.000000e+05 0.000000e+00
3.335746e+05 5.195984e+04 0.000000e+00
3.000000e+05 6.864685e+04 0.000000e+00
3.000000e+05 3.513350e+04 0.000000e+00
3.335698e+05 8.592243e+04 0.000000e+00
4.000000e+05 -1.217391e+05 0.000000e+00
3.335767e+05 -1.597580e+04 0.000000e+00
3.000000e+05 -3.189320e+04 0.000000e+00
4.000000e+05 -1.739130e+04 0.000000e+00
-3.335594e+05 2.207671e+05 0.000000e+00
-3.246449e+05 -3.150201e+05 0.000000e+00
-3.608008e+05 -3.135540e+05 0.000000e+00
-3.306775e+05 -2.872043e+05 0.000000e+00
-2.333333e+05 -3.000000e+05 0.000000e+00
-2.558329e+05 -3.333551e+05 0.000000e+00
-2.204932e+05 -3.335596e+05 0.000000e+00
-2.000000e+05 -3.000000e+05 0.000000e+00
1.333333e+05 -3.000000e+05 0.000000e+00
-3.000000e+05 -2.326501e+05 0.000000e+00
-3.334238e+05 -2.194600e+05 0.000000e+00
3.667086e+05 -2.411486e+05 0.000000e+00
3.331504e+05 -2.559007e+05 0.000000e+00
2.000000e+05 3.000000e+05 0.000000e+00
1.862602e+05 3.335762e+05 0.000000e+00
2.204925e+05 3.335627e+05 0.000000e+00
2.000000e+05 -3.000000e+05 0.000000e+00
3.000000e+05 2.018902e+05 0.000000e+00
3.334338e+05 2.210121e+05 0.000000e+00
-4.000000e+05 -2.260870e+05 0.000000e+00
-3.664180e+05 -2.401224e+05 0.000000e+00
-3.667926e+05 -2.056104e+05 0.000000e+00
-3.668215e+05 2.412511e+05 0.000000e+00
-4.000000e+05 2.260870e+05 0.000000e+00
3.000000e+05 3.000000e+05 0.000000e+00
3.306623e+05 2.876205e+05 0.000000e+00
-5.074947e+04 3.335740e+05 0.000000e+00
-6.666667e+04 3.000000e+05 0.000000e+00
-8.460317e+04 3.335738e+05 0.000000e+00
-4.000000e+05 -1.565217e+05 0.000000e+00
-3.668386e+05 -1.711937e+05 0.000000e+00
-3.668436e+05 -1.367793e+05 0.000000e+00
3.336147e+05 1.538073e+05 0.000000e+00
2.260870e+05 -4.000000e+05 0.000000e+00
2.059253e+05 -3.667880e+05 0.000000e+00
2.402710e+05 -3.664674e+05 0.000000e+00
4.000000e+05 1.217391e+05 0.000000e+00
3.668342e+05 1.036336e+05 0.000000e+00
1.029661e+05 -3.668356e+05 0.000000e+00
1.217391e+05 -4.000000e+05 0.000000e+00
1.372913e+05 -3.668342e+05 0.000000e+00
4.000000e+05 2.956522e+05 0.000000e+00
3.650890e+05 2.754572e+05 0.000000e+00
3.607920e+05 3.136982e+05 0.000000e+00
-3.691108e+05 3.139776e+05 0.000000e+00
-4.000000e+05 2.956522e+05 0.000000e+00
-4.000000e+05 1.217391e+05 0.000000e+00
3.668347e+05 -1.370424e+05 0.000000e+00
3.667968e+05 -2.060541e+05 0.000000e+00
1.565217e+05 -4.000000e+05 0.000000e+00
-8.695652e+04 -4.000000e+05 0.000000e+00
3.000000e+05 1.021602e+05 0.000000e+00
3.335748e+05 1.198782e+05 0.000000e+00
3.433740e+04 3.668366e+05 0.000000e+00
1.739130e+04 4.000000e+05 0.000000e+00
1.166851e+01 3.668366e+05 0.000000e+00
1.185195e+05 3.335744e+05 0.000000e+00
1.333333e+05 3.000000e+05 0.000000e+00
1.523779e+05 3.335748e+05 0.000000e+00
1.666667e+05 3.000000e+05 0.000000e+00
4.000000e+05 -2.608696e+05 0.000000e+00
-3.333333e+04 -3.000000e+05 0.000000e+00
-1.695675e+04 -3.335737e+05 0.000000e+00
-3.702024e+05 -3.502584e+05 0.000000e+00
-4.000000e+05 -3.304348e+05 0.000000e+00
5.075044e+04 -3.335735e+05 0.000000e+00
3.335765e+05 -4.994471e+04 0.000000e+00
3.000000e+05 -6.540655e+04 0.000000e+00
3.335760e+05 -8.391401e+04 0.000000e+00
1.029903e+05 3.668367e+05 0.000000e+00
8.695652e+04 4.000000e+05 0.000000e+00
6.866331e+04 3.668366e+05 0.000000e+00
-3.335741e+05 -1.854110e+05 0.000000e+00
-3.335907e+05 -1.513473e+05 0.000000e+00
1.217391e+05 4.000000e+05 0.000000e+00
-1.029655e+05 3.668361e+05 0.000000e+00
-1.217391e+05 4.000000e+05 0.000000e+00
-1.372909e+05 3.668345e+05 0.000000e+00
-3.333582e+05 2.559979e+05 0.000000e+00
-1.565217e+05 4.000000e+05 0.000000e+00
-3.333333e+04 3.000000e+05 0.000000e+00
-1.689577e+04 3.335741e+05 0.000000e+00
4.000000e+05 -2.260870e+05 0.000000e+00
4.000000e+05 5.217391e+04 0.000000e+00
-3.000000e+05 -3.000000e+05 0.000000e+00
-2.666667e+05 -3.000000e+05 0.000000e+00
2.749236e+05 -3.652724e+05 0.000000e+00
2.956522e+05 -4.000000e+05 0.000000e+00
-2.260870e+05 4.000000e+05 0.000000e+00
3.246361e+05 3.151522e+05 0.000000e+00
-2.956522e+05 -4.000000e+05 0.000000e+00
-3.139562e+05 -3.691022e+05 0.000000e+00
-3.335708e+05 5.163284e+04 0.000000e+00
-3.000000e+05 6.786232e+04 0.000000e+00
-3.335713e+05 8.537688e+04 0.000000e+00
-3.502741e+05 3.702051e+05 0.000000e+00
-3.000000e+05 -1.653002e+05 0.000000e+00
3.139513e+05 3.691251e+05 0.000000e+00
2.956522e+05 4.000000e+05 0.000000e+00
3.668475e+05 1.379968e+05 0.000000e+00
1.716142e+05 -3.668268e+05 0.000000e+00
4.000000e+05 -3.652174e+05 0.000000e+00
4.000000e+05 -4.000000e+05 0.000000e+00
1.913043e+05 -4.000000e+05 0.000000e+00
-2.200076e+05 3.334178e+05 0.000000e+00
-2.000000e+05 3.000000e+05 0.000000e+00
3.486284e+05 3.731663e+05 0.000000e+00
3.701971e+05 3.502998e+05 0.000000e+00
-3.668327e+05 -3.377970e+04 0.000000e+00
3.000000e+05 1.356736e+05 0.000000e+00
-1.523763e+05 -3.335744e+05 0.000000e+00
-2.873505e+05 3.306746e+05 0.000000e+00
-3.000000e+05 3.000000e+05 0.000000e+00
3.000000e+05 -9.891990e+04 0.000000e+00
-4.000000e+05 -2.956522e+05 0.000000e+00
-2.956522e+05 4.000000e+05 0.000000e+00
-2.752247e+05 3.650898e+05 0.000000e+00
-3.136055e+05 3.608027e+05 0.000000e+00
-3.000000e+05 -2.663251e+05 0.000000e+00
-3.000000e+05 1.010248e+05 0.000000e+00
-3.000000e+05 2.336749e+05 0.000000e+00
[...]
POINT_DATA 955
VECTORS displacement double
1.998634e-04 0.000000e+00 2.453957e-05
1.947535e-04 -3.133410e-05 2.063400e-05
1.946988e-04 0.000000e+00 2.634632e-05
-2.792466e-05 1.829603e-04 -5.925063e-05
1.107440e-05 2.138927e-05 -1.769841e-06
0.000000e+00 1.393868e-04 -5.468945e-05
-1.128004e-04 -8.387820e-05 -8.986163e-06
-8.009740e-05 -2.671635e-05 1.635873e-05
-1.106494e-04 -5.800105e-05 1.337876e-05
-2.633175e-05 5.765430e-05 -1.216065e-05
-5.055652e-05 5.886142e-05 -1.422939e-05
-2.214612e-05 -1.345663e-04 -1.767683e-05
-4.856577e-05 0.000000e+00 3.459457e-06
1.385938e-04 -4.987889e-06 2.382162e-05
1.749816e-04 0.000000e+00 3.193875e-05
1.625266e-04 1.124397e-07 2.903803e-05
1.515119e-04 0.000000e+00 2.642430e-05
1.563991e-04 0.000000e+00 7.707501e-05
1.725171e-04 8.509528e-05 7.308012e-05
1.796092e-04 0.000000e+00 2.499442e-05
1.836251e-04 -1.289419e-05 2.196494e-05
6.528474e-05 0.000000e+00 8.916685e-07
3.719656e-05 -1.379323e-04 -1.691892e-05
7.188210e-06 0.000000e+00 2.106257e-07
-4.109620e-05 2.024654e-04 -4.137117e-05
0.000000e+00 1.856793e-04 -2.149002e-05
-1.526753e-05 5.281485e-05 -1.282098e-05
0.000000e+00 5.462080e-05 -1.140078e-05
0.000000e+00 4.898576e-05 -1.369227e-05
0.000000e+00 -6.570224e-05 -2.847292e-06
4.106362e-07 -6.535901e-05 -1.404814e-06
0.000000e+00 2.408045e-05 -1.645811e-05
-2.598309e-05 3.173392e-05 -1.633083e-05
0.000000e+00 7.109229e-06 -1.686826e-05
-2.881006e-05 1.570142e-05 -1.704649e-05
-3.643281e-05 -4.898699e-04 -1.759849e-04
-1.304121e-05 5.866451e-05 -9.407776e-06
-3.116920e-05 6.266841e-05 -1.120193e-05
-5.553892e-05 -2.715790e-04 -6.975043e-05
1.863108e-04 0.000000e+00 7.267726e-05
2.078378e-04 0.000000e+00 6.738898e-05
1.978286e-04 7.166628e-05 6.798301e-05
6.249133e-05 1.007262e-04 8.164579e-05
4.477348e-05 0.000000e+00 8.521071e-05
2.753922e-05 9.596012e-05 8.284431e-05
1.393209e-05 4.437357e-05 -3.565533e-06
3.402061e-06 4.824615e-05 -5.455743e-06
1.987000e-05 2.887927e-05 -1.774321e-06
-7.904324e-05 2.786681e-04 -1.664823e-05
-1.184128e-04 4.063697e-04 -7.092954e-05
-9.988501e-05 3.609975e-04 -2.313793e-05
-8.530369e-05 2.931895e-04 -5.241650e-05
6.872318e-05 -2.406877e-05 1.365613e-05
8.711585e-05 -1.096945e-05 1.623636e-05
4.301559e-05 -2.245891e-05 1.197473e-05
-2.311865e-05 1.070783e-04 8.012430e-05
-3.562773e-05 1.705089e-04 6.690620e-05
-2.400863e-05 1.679838e-04 6.042815e-05
-1.289012e-04 4.540375e-04 -1.201231e-04
-7.670039e-05 2.955005e-04 -7.985036e-05
-2.448522e-05 -3.584428e-05 -1.403049e-05
-2.811636e-05 -1.965850e-05 -1.591535e-05
0.000000e+00 -2.806523e-05 -1.486286e-05
-3.855364e-05 5.127264e-05 -1.459408e-05
-4.909245e-05 4.015287e-05 -1.651156e-05
-6.900633e-05 4.954337e-05 -1.663116e-05
6.376542e-05 -2.845699e-04 -6.604574e-05
2.890478e-05 -4.950959e-04 -1.733008e-04
9.168597e-05 -4.515505e-04 -1.501153e-04
0.000000e+00 -5.482533e-05 -9.785941e-06
-1.954593e-05 -4.917793e-05 -1.138302e-05
1.360308e-04 -3.685837e-04 -1.141219e-04
1.182098e-04 -2.505204e-04 -5.189041e-05
1.574141e-04 -1.986943e-04 -3.313956e-05
1.933502e-04 -5.525082e-05 1.595643e-05
7.712715e-05 2.045674e-04 7.145311e-05
4.792273e-05 3.152232e-04 5.168970e-05
3.866187e-05 2.000541e-04 7.327286e-05
1.172570e-04 1.982985e-04 6.959711e-05
9.046997e-05 3.132575e-04 5.054658e-05
2.246224e-06 1.557235e-04 -5.772104e-05
0.000000e+00 1.134747e-04 -4.783741e-05
5.170470e-05 1.268917e-04 -3.259035e-05
6.413769e-06 -6.247344e-05 2.062608e-06
0.000000e+00 -6.432514e-05 3.855582e-07
0.000000e+00 -5.957606e-05 3.481919e-06
-2.946500e-05 -1.947706e-06 -1.692445e-05
2.124499e-04 9.626275e-05 5.492824e-05
2.045008e-04 1.208420e-04 4.571347e-05
2.115556e-04 6.816234e-05 4.923808e-05
1.437002e-04 -1.088567e-04 -2.791129e-06
1.627518e-04 0.000000e+00 1.313016e-05
1.770445e-04 -8.264155e-05 7.438942e-06
2.023963e-04 4.317615e-05 4.296482e-05
1.972579e-04 8.018556e-05 4.147075e-05
-5.025681e-05 3.923902e-06 -3.658737e-05
1.841096e-04 7.204297e-06 3.499506e-05
9.522561e-05 -1.289293e-04 -1.178475e-05
-7.040052e-05 -1.165531e-04 -1.091599e-05
8.302223e-06 3.651596e-05 -3.389329e-06
0.000000e+00 4.267490e-05 -4.462003e-06
1.118015e-04 8.668470e-05 -1.509442e-06
7.571851e-05 7.597775e-05 -3.778659e-05
-7.859023e-06 3.611051e-05 8.463563e-05
-1.111869e-05 7.816560e-05 8.166300e-05
1.584236e-04 -1.115286e-05 1.363537e-05
1.192115e-04 2.753921e-06 4.862268e-06
1.372732e-04 1.030131e-05 1.398007e-05
0.000000e+00 3.211706e-05 -4.178652e-05
9.917867e-05 1.070033e-04 1.310871e-06
-8.690898e-05 -1.844105e-05 -1.759097e-05
1.147274e-04 2.323940e-05 1.192626e-05
7.853134e-05 4.011172e-05 5.492264e-06
9.269194e-05 3.001684e-05 8.853750e-06
-1.014462e-04 -8.844347e-05 1.075855e-06
-8.691341e-05 0.000000e+00 1.032821e-05
-9.428486e-05 -7.020073e-05 -8.894293e-05
1.267494e-04 0.000000e+00 2.182611e-05
-4.445892e-05 -4.273131e-05 -1.332093e-05
-5.939763e-05 -4.877263e-05 -1.250528e-05
-7.560335e-05 -3.516923e-05 -1.540575e-05
-3.346265e-05 -5.418725e-05 -1.039842e-05
0.000000e+00 3.844518e-05 -1.544193e-05
-5.872299e-05 -1.037637e-05 -1.743124e-05
-9.213872e-05 2.017869e-07 -1.884036e-05
0.000000e+00 -1.082378e-05 -1.634867e-05
-6.605527e-05 2.545683e-04 1.664982e-05
-9.496352e-05 -5.455676e-05 -1.457197e-05
-5.362447e-05 -5.466789e-06 1.018678e-06
-9.465376e-05 -5.996820e-05 -4.500751e-05
-1.278388e-04 -3.331289e-04 -1.250878e-04
-1.188371e-04 -1.619188e-04 -3.342254e-05
-9.835885e-05 -2.230115e-04 -5.544468e-05
-9.408903e-05 -4.296302e-04 -1.597396e-04
9.831369e-05 2.678243e-05 6.450958e-06
-1.373097e-04 -2.345335e-04 -1.750481e-04
-8.616133e-05 -8.368532e-05 -1.250082e-04
-2.936407e-06 5.500167e-05 -7.838557e-06
7.018241e-08 5.466217e-05 -6.515821e-06
1.227407e-04 -1.464642e-05 2.096462e-05
1.450214e-04 -5.217972e-06 2.532683e-05
1.213254e-04 -1.362294e-05 2.077006e-05
6.076014e-05 4.625531e-05 3.468056e-06
1.876933e-05 -5.950957e-05 3.026201e-06
1.811932e-05 -5.881589e-05 3.780039e-06
0.000000e+00 4.966986e-05 -7.281418e-05
-4.479990e-05 1.627650e-05 -7.142053e-05
-3.278273e-05 3.011566e-05 -9.675447e-05
-3.086813e-05 1.963949e-04 4.017274e-05
0.000000e+00 1.899031e-04 3.236844e-05
5.838990e-05 -3.472106e-05 1.163728e-05
3.760226e-05 -4.134734e-05 9.483183e-06
1.837754e-04 1.569264e-04 6.399124e-05
1.662343e-04 2.590840e-04 5.052823e-05
1.542741e-04 1.815885e-04 6.727923e-05
0.000000e+00 8.545487e-05 -8.983639e-05
-7.862622e-06 4.678816e-05 -1.005240e-04
3.266907e-05 6.116072e-05 -7.764658e-05
-6.461022e-06 -6.457162e-05 -3.197337e-06
8.589155e-05 0.000000e+00 7.892819e-06
9.463439e-05 1.609640e-05 9.427021e-06
7.326717e-05 1.698284e-05 5.788715e-06
0.000000e+00 -6.244427e-05 -6.510711e-06
-1.321164e-05 -5.887364e-05 -8.221095e-06
1.649225e-04 1.486733e-07 2.087464e-05
1.581610e-04 0.000000e+00 2.091757e-05
1.420558e-04 8.833140e-06 1.759550e-05
0.000000e+00 -4.077572e-05 8.744061e-06
1.728761e-05 -4.669559e-05 7.759928e-06
2.404776e-05 -3.390640e-05 1.005272e-05
-1.606763e-05 1.254739e-04 7.404723e-05
0.000000e+00 1.408289e-04 6.824020e-05
0.000000e+00 1.660672e-04 -4.431691e-05
-2.119680e-05 4.438498e-05 -1.479820e-05
-9.153159e-06 5.642323e-05 -1.042269e-05
1.337889e-04 0.000000e+00 1.655478e-05
1.201329e-04 0.000000e+00 6.127884e-06
-4.030903e-05 -5.761958e-05 -9.021959e-06
-2.018803e-05 -6.156653e-05 -7.012897e-06
2.181365e-04 4.172183e-05 5.568379e-05
2.181786e-04 0.000000e+00 6.008689e-05
2.130720e-04 5.638847e-05 6.235967e-05
1.869754e-04 2.264387e-05 3.664476e-05
1.652896e-04 1.965013e-05 3.092829e-05
1.672494e-04 6.623247e-06 3.066198e-05
1.445244e-04 -3.039217e-07 2.567316e-05
0.000000e+00 5.125098e-05 -6.620594e-06
1.599672e-04 -2.695771e-04 -7.376297e-05
1.787882e-04 -1.419800e-04 -1.459879e-05
-3.921217e-05 -1.953775e-06 2.748476e-05
0.000000e+00 6.459547e-06 1.777031e-05
1.750665e-04 -4.312759e-05 9.605038e-06
-5.967004e-05 7.854183e-06 -1.809340e-05
-9.057209e-05 1.896506e-05 -1.910257e-05
-5.642378e-05 2.523436e-05 -1.777829e-05
2.018473e-04 1.653091e-05 4.162077e-05
2.104145e-04 0.000000e+00 4.557958e-05
2.138401e-04 2.812208e-05 4.865730e-05
-5.289449e-05 -7.796490e-05 -1.338409e-04
6.252686e-06 -6.429469e-05 -1.072855e-04
1.951608e-04 0.000000e+00 3.850184e-05
1.390514e-04 9.494228e-05 7.682143e-05
1.200151e-04 0.000000e+00 8.105158e-05
1.010072e-04 1.005545e-04 7.958474e-05
-5.138262e-05 2.226193e-04 4.367742e-05
8.109833e-05 0.000000e+00 8.326226e-05
1.901569e-04 2.148954e-04 5.029602e-05
2.034047e-04 1.278617e-04 5.994706e-05
0.000000e+00 5.533219e-05 -9.152632e-06
0.000000e+00 -4.307992e-05 -1.266552e-05
-1.193387e-04 -1.275027e-04 -5.340133e-05
-1.340323e-04 -2.214178e-04 -8.499158e-05
5.377665e-05 1.745445e-05 2.791270e-06
4.610849e-05 0.000000e+00 1.840720e-06
1.409473e-05 0.000000e+00 8.655619e-05
4.665306e-05 -3.173709e-05 1.124581e-05
-1.026860e-04 0.000000e+00 2.845581e-05
-9.432121e-05 -2.655623e-05 2.618933e-05
2.288843e-05 2.673225e-04 -5.276187e-05
-5.561776e-05 5.102544e-04 -1.179390e-04
-4.096761e-05 2.869002e-04 -8.210535e-05
-1.618707e-05 4.906293e-05 8.424325e-05
-7.900586e-05 -3.227003e-04 -1.912108e-04
6.086163e-05 -1.162479e-05 1.377963e-05
7.540917e-05 0.000000e+00 1.518647e-05
-6.408274e-06 -6.423926e-05 -4.841369e-06
1.179580e-04 1.375100e-05 1.351852e-05
0.000000e+00 1.584170e-05 -1.835897e-06
0.000000e+00 0.000000e+00 -1.496733e-06
1.091295e-04 0.000000e+00 1.201897e-05
6.404654e-06 1.863684e-04 7.508094e-05
9.503338e-06 3.000392e-04 5.425080e-05
3.619490e-05 -1.076132e-05 1.234430e-05
2.023975e-05 -2.008685e-05 1.133087e-05
1.172386e-04 9.549830e-05 1.393167e-05
-1.990656e-05 -6.230023e-05 -5.057833e-06
2.435977e-06 -2.923299e-04 -7.163990e-05
-2.838904e-05 1.471057e-04 7.678736e-05
-4.079250e-05 1.977374e-04 6.495605e-05
-8.271122e-05 3.584600e-05 -1.822652e-05
0.000000e+00 1.784664e-05 -9.167588e-06
-1.803515e-05 0.000000e+00 8.641828e-05
-1.607199e-05 7.960875e-05 8.404948e-05
-2.239620e-05 7.468052e-05 8.372642e-05
-1.335976e-04 -1.757757e-04 -1.126106e-04
-1.147776e-04 4.983126e-04 -1.464416e-04
-7.879227e-05 3.104792e-04 1.580638e-05
2.076075e-04 2.130454e-05 6.330993e-05
1.057158e-04 -2.320486e-05 -2.899079e-05
1.435340e-05 0.000000e+00 -9.814554e-07
2.550668e-04 8.448536e-05 1.109270e-04
4.039592e-04 -2.369530e-05 2.932361e-04
-1.779499e-05 0.000000e+00 8.564939e-05
4.191207e-04 1.684362e-04 3.183264e-04
2.287457e-04 1.488189e-04 9.220617e-05
1.133077e-04 -8.495940e-06 1.960283e-05
2.664577e-05 3.449436e-05 -1.293346e-06
2.248272e-05 1.390667e-05 -9.482730e-07
3.522672e-05 1.863992e-05 2.586982e-07
-6.073064e-05 2.561004e-04 4.470173e-05
0.000000e+00 1.712986e-04 5.332062e-05
-1.319896e-04 -3.040317e-04 -2.149256e-04
1.197167e-05 -5.607145e-05 5.126966e-06
0.000000e+00 -5.147365e-05 6.391252e-06
2.836618e-05 -5.123440e-05 6.912338e-06
6.491033e-05 0.000000e+00 4.495543e-06
3.873927e-05 3.320550e-05 2.972668e-07
5.444619e-05 3.311107e-05 2.677120e-06
3.281572e-05 4.687243e-05 -6.532461e-07
4.533100e-05 4.709048e-05 1.195816e-06
7.231967e-05 3.258274e-05 5.504594e-06
-1.676592e-05 1.671871e-04 7.577622e-05
7.111811e-06 5.509144e-05 -5.233725e-06
-1.140010e-05 6.094512e-05 -8.142557e-06
-4.287324e-05 2.132021e-04 -1.416235e-05
-3.847160e-05 2.115230e-04 1.460764e-05
7.951041e-05 -3.092637e-05 1.417739e-05
9.638437e-05 -1.941794e-05 1.698899e-05
1.005333e-04 -2.438262e-05 1.700981e-05
-1.053589e-04 0.000000e+00 2.032122e-05
0.000000e+00 1.943617e-04 6.424293e-06
-3.718269e-05 2.348709e-04 6.223193e-05
-1.906224e-05 2.727461e-04 5.788136e-05
-5.371136e-05 -2.779890e-05 -1.587640e-05
4.810840e-05 -4.490403e-05 9.134182e-06
3.493598e-05 -5.293468e-05 6.349710e-06
0.000000e+00 9.546121e-05 -6.833787e-05
-7.025203e-06 0.000000e+00 8.681013e-05
-3.139744e-05 1.395127e-04 7.633448e-05
1.011924e-04 0.000000e+00 1.815277e-05
2.655551e-04 3.424381e-04 1.668522e-04
1.423403e-04 2.083401e-04 2.361060e-05
8.400362e-05 4.622240e-04 3.568527e-06
1.834874e-04 4.635607e-05 3.639569e-05
3.671833e-07 8.829916e-05 8.367523e-05
2.026042e-04 1.670663e-04 4.887309e-05
2.931816e-05 0.000000e+00 -8.314876e-08
1.319696e-04 2.938258e-04 5.034272e-05
1.395001e-04 -3.633875e-05 -1.641984e-06
1.833828e-04 -8.626345e-05 6.212367e-07
0.000000e+00 0.000000e+00 4.213943e-05
0.000000e+00 3.626817e-06 3.628223e-05
-3.069368e-05 -1.277871e-06 3.882154e-05
1.658254e-04 -1.741977e-04 -3.950802e-05
6.513953e-06 -6.355262e-05 4.366264e-07
0.000000e+00 9.999157e-05 7.814983e-05
-6.325677e-05 -8.253501e-06 3.426602e-05
-7.868970e-05 0.000000e+00 3.557574e-05
0.000000e+00 5.201067e-05 8.341233e-05
1.637014e-05 -9.124202e-06 1.176842e-05
4.978705e-05 0.000000e+00 1.325158e-05
0.000000e+00 9.632587e-05 -2.906914e-05
0.000000e+00 9.971056e-05 -3.921249e-05
0.000000e+00 9.663168e-05 -1.900962e-05
0.000000e+00 6.847106e-05 -9.127471e-05
0.000000e+00 3.020587e-05 -2.855943e-06
2.186377e-04 0.000000e+00 5.292778e-05
1.893586e-04 0.000000e+00 2.035223e-05
0.000000e+00 -2.788971e-05 1.042127e-05
0.000000e+00 9.318984e-05 -1.953186e-05
-4.377096e-05 0.000000e+00 3.998793e-05
0.000000e+00 0.000000e+00 8.496098e-05
2.485405e-05 0.000000e+00 1.211627e-05
1.565816e-04 -9.433843e-05 -1.566206e-05
0.000000e+00 -1.430469e-05 1.143450e-05
0.000000e+00 0.000000e+00 1.177684e-05
-1.109964e-05 0.000000e+00 8.513978e-05
2.226404e-05 4.436402e-05 -2.508975e-06
1.135348e-04 -2.513151e-04 2.228538e-05
4.543536e-05 -2.954879e-04 -7.526588e-05
1.525051e-04 -1.083072e-04 3.152760e-05
-3.591162e-06 -6.393077e-05 -2.125246e-06
3.817814e-06 -6.312854e-05 -2.785076e-07
3.086466e-04 -1.028307e-04 2.223938e-04
2.160099e-04 -7.008085e-05 9.432945e-05
9.824404e-06 -6.131845e-05 1.086129e-06
-9.692072e-06 -6.292700e-05 -3.011453e-06
1.762187e-04 -1.530703e-04 7.071509e-05
1.544117e-04 -2.314996e-04 6.983379e-05
1.985033e-04 -2.020746e-04 1.199476e-04
-1.729720e-06 -6.338126e-05 -1.530188e-06
4.810680e-07 -6.267723e-05 -9.132240e-07
2.319374e-06 -6.292881e-05 -6.120913e-07
2.523508e-04 -1.520701e-04 1.740696e-04
2.131848e-04 -1.272883e-04 1.090604e-04
5.208541e-06 -6.207548e-05 7.067106e-08
-4.545090e-06 -6.289301e-05 -1.926396e-06
8.055056e-05 9.133753e-04 -2.961415e-04
9.074814e-05 5.812848e-04 -1.397101e-04
6.725032e-05 3.233930e-05 1.203559e-05
5.783943e-05 7.929007e-05 6.249327e-06
9.508258e-06 -5.319199e-05 1.956948e-06
-3.309048e-07 -4.532222e-05 1.960974e-06
3.247869e-05 -2.818498e-05 7.136012e-06
6.746359e-05 -2.548796e-05 1.198134e-05
1.326599e-04 3.242774e-04 -2.438053e-05
3.449880e-05 2.589855e-04 -3.280315e-05
1.882641e-04 1.227006e-04 3.710586e-05
1.940554e-04 1.803363e-04 3.774637e-05
1.378210e-04 1.574587e-04 1.380639e-05
1.739600e-04 1.772376e-04 2.495011e-05
-1.674166e-04 7.167417e-04 -2.180898e-04
6.903445e-05 1.384898e-02 -4.546512e-03
-1.839094e-04 4.816656e-03 -1.872593e-03
-4.734189e-04 8.013489e-03 -2.461160e-03
1.415390e-04 6.056174e-03 -2.261503e-03
1.894076e-04 2.438229e-04 3.622930e-05
1.734237e-04 3.090053e-04 3.163517e-05
1.441151e-04 3.660636e-04 2.643882e-05
-1.622693e-04 8.358803e-04 -2.486787e-04
-9.669969e-05 7.850284e-04 -1.670538e-04
-3.967229e-05 6.720656e-04 -9.617551e-05
-4.194482e-05 8.997317e-04 -2.114957e-04
-1.024066e-04 1.052712e-03 -3.067193e-04
1.280298e-05 5.452055e-04 -2.762549e-05
1.750197e-04 7.459336e-05 3.415287e-05
1.571865e-04 3.642089e-05 2.985587e-05
4.550285e-05 1.475487e-04 -5.358959e-06
-6.023273e-04 4.551528e-03 -6.203471e-04
-1.426878e-04 1.795604e-03 -1.722176e-04
-2.361859e-04 1.469074e-03 -4.010939e-04
-3.677385e-04 2.784122e-03 -7.796920e-04
-6.931835e-04 1.382550e-02 -1.239988e-03
-4.725874e-04 4.408664e-03 -1.410690e-03
-1.706831e-04 4.277897e-03 -1.622647e-03
7.989873e-05 6.659680e-04 -9.219758e-05
1.228335e-04 5.784406e-04 -6.921272e-05
8.117424e-05 1.000940e-03 -3.055443e-04
3.948051e-05 -5.178621e-05 6.241541e-06
1.643499e-05 -5.761462e-05 2.395925e-06
1.645731e-04 7.973502e-04 1.635628e-04
5.289545e-04 4.605495e-04 6.306336e-04
1.028118e-04 4.078768e-04 2.205869e-05
-9.526097e-05 9.134275e-04 -1.716237e-04
9.723040e-05 -2.621282e-05 1.639905e-05
1.168591e-04 -1.249501e-05 2.017551e-05
-6.718212e-05 2.786173e-04 -3.604939e-05
-3.587654e-05 1.532027e-04 -9.883759e-06
3.527658e-05 -4.158281e-05 6.509573e-06
3.879062e-05 -4.840006e-05 6.385776e-06
-1.496367e-04 6.007738e-04 -1.489281e-04
-1.235744e-04 4.998736e-04 -7.385615e-05
5.947165e-05 -4.368373e-05 1.013591e-05
1.187910e-04 6.632607e-04 -1.428207e-04
1.478909e-04 4.660488e-04 -4.208081e-05
1.372324e-04 7.809263e-06 2.487120e-05
-1.554127e-05 -3.254461e-05 1.693453e-06
-3.570349e-05 -1.126082e-05 1.346371e-06
2.386344e-05 -6.314786e-06 7.347421e-06
7.232360e-04 6.163833e-05 8.362237e-04
-1.033936e-04 5.682244e-04 -7.326816e-05
-9.618026e-05 4.193503e-04 -1.804451e-05
1.068517e-04 2.290783e-04 -1.096881e-05
9.561424e-05 1.344976e-04 5.404150e-06
8.200115e-05 -3.379343e-05 1.391520e-05
9.178412e-05 3.663604e-04 -5.195217e-05
1.307280e-04 4.542497e-04 -6.520991e-05
-6.880893e-05 3.332580e-04 2.837295e-05
-4.391330e-05 3.335052e-04 3.779420e-05
3.301263e-05 9.376629e-04 -2.382543e-04
6.721828e-05 1.432446e-03 -5.388408e-04
1.999396e-05 4.298636e-04 -8.988384e-05
5.586847e-05 4.230173e-04 2.085198e-05
-6.346476e-05 2.017923e-05 2.367075e-06
-2.550875e-05 3.795919e-04 2.954948e-05
-6.710996e-05 4.471894e-04 -4.728164e-06
6.693829e-05 -3.986788e-05 1.114863e-05
-4.543750e-04 9.437913e-04 -1.243842e-04
1.302007e-03 6.746674e-04 1.849854e-03
-1.801501e-04 9.059925e-04 -2.786781e-04
1.710797e-04 3.404507e-04 8.472916e-06
1.574534e-04 3.457470e-04 -1.323853e-05
-5.670327e-04 1.931975e-03 -4.769650e-04
-9.953675e-05 6.897610e-05 2.654642e-06
-1.408211e-04 7.193359e-04 -1.702935e-04
-1.480117e-04 1.015998e-03 -3.059151e-04
1.218358e-03 4.383841e-03 1.898116e-03
7.772518e-06 2.649804e-05 5.166791e-06
-1.088443e-05 7.667883e-05 4.450933e-07
7.777763e-05 -5.931785e-08 1.418887e-05
-1.396111e-04 1.598488e-03 -5.504470e-04
1.096876e-05 4.135390e-04 2.273640e-05
1.514071e-04 4.265101e-04 -5.298874e-06
9.568259e-06 7.235300e-04 -2.074914e-04
-1.399893e-04 8.673343e-04 -2.390313e-04
-1.064969e-04 4.892972e-04 -9.718315e-05
1.231257e-04 2.009309e-05 2.172676e-05
1.421572e-04 5.801880e-05 2.550887e-05
4.754994e-04 1.607620e-03 6.831169e-04
-2.210451e-04 1.156285e-03 -3.793061e-04
1.788103e-04 2.562590e-04 1.894134e-05
1.674994e-05 2.069970e-03 -8.041168e-04
-1.393711e-04 1.390391e-03 -4.784097e-04
-2.021640e-04 2.008756e-03 -7.508253e-04
-1.294713e-04 2.705056e-03 -1.047599e-03
-8.543765e-05 1.798303e-03 -6.694421e-04
-3.224940e-04 5.071843e-04 -2.820458e-05
-2.165378e-04 2.772628e-04 -4.092447e-06
-1.492097e-04 1.474613e-04 2.666982e-06
-2.905767e-05 3.164197e-03 -1.213791e-03
-3.359767e-06 1.211884e-03 -4.275466e-04
6.622885e-05 5.416017e-04 -2.635280e-05
1.733841e-05 7.119485e-04 -1.097540e-04
1.156093e-04 4.975096e-04 -1.825821e-05
-2.053579e-04 1.363241e-03 -4.697383e-04
-2.858266e-04 2.980921e-03 -1.079452e-03
1.551453e-05 1.378954e-03 -4.768670e-04
1.133599e-04 8.334362e-05 1.661994e-05
1.539289e-04 2.469507e-04 2.728476e-06
1.035750e-04 -7.951703e-06 1.802076e-05
-3.173657e-05 5.110447e-04 -1.911563e-05
-2.798704e-04 1.908183e-03 -6.545847e-04
-5.593198e-05 1.227809e-03 -3.930195e-04
1.598485e-04 1.107686e-04 2.633547e-05
-7.141776e-05 5.965993e-04 -6.855290e-05
4.017628e-06 3.365765e-03 -1.301444e-03
5.967019e-05 -3.761488e-05 1.013227e-05
1.067079e-04 3.597606e-05 1.828488e-05
8.651870e-05 -2.663818e-05 1.462159e-05
9.228790e-05 7.699552e-04 -1.667498e-04
-1.825038e-05 2.103294e-03 -7.901391e-04
2.839073e-03 2.102125e-03 4.270599e-03
5.345270e-04 -2.250038e-04 7.159368e-04
4.206808e-04 -1.649253e-04 4.387913e-04
-7.001845e-05 -1.333886e-05 4.482520e-07
7.596740e-04 -2.084074e-04 1.263743e-03
-5.421496e-05 -2.369709e-05 -6.263460e-07
-1.059472e-04 1.680205e-05 3.746415e-06
-7.569818e-04 8.775054e-04 8.266773e-05
1.061938e-03 8.287262e-06 1.888849e-03
-1.257939e-03 1.872303e-03 -9.386004e-05
2.029961e-03 1.838549e-04 3.337603e-03
2.596006e-03 9.306214e-03 4.200389e-03
-1.762425e-03 5.220032e-03 -1.638229e-03
-3.375252e-04 1.172078e-02 -3.938455e-03
-1.282107e-05 -5.065276e-05 -3.615656e-07
3.958573e-06 -5.896017e-05 3.420747e-07