# vtk DataFile Version 2.0
Simplicial Mesh Example
ASCII
DATASET UNSTRUCTURED_GRID
POINTS 9490 double
4.132646e+04 -3.761110e+05 -2.495947e+04
1.739130e+04 -4.000000e+05 0.000000e+00
1.424943e+04 -3.757412e+05 -2.497841e+04
3.478261e+04 -4.000000e+05 -2.478841e+04
3.431474e+04 -3.668361e+05 0.000000e+00
6.536071e+04 -3.800007e+05 -2.495579e+04
5.217391e+04 -4.000000e+05 0.000000e+00
5.217391e+04 -4.000000e+05 -5.000000e+04
6.848295e+04 -3.663208e+05 -5.000000e+04
1.739130e+04 -4.000000e+05 -5.000000e+04
3.422046e+04 -3.663210e+05 -5.000000e+04
-4.000000e+05 1.043476e+05 -2.478869e+04
-3.778006e+05 1.290431e+05 -2.559237e+04
-3.668348e+05 1.033122e+05 0.000000e+00
-3.750401e+05 1.075547e+05 -3.181274e+04
4.000000e+05 -3.652174e+05 -2.500000e+04
3.692598e+05 -3.333058e+05 -2.499312e+04
3.776504e+05 -3.747415e+05 -2.247043e+04
3.693733e+05 -3.529960e+05 0.000000e+00
-4.000000e+05 8.695652e+04 0.000000e+00
-3.760516e+05 8.212939e+04 -2.543564e+04
-3.482879e+05 1.253124e+05 -2.574623e+04
-3.665651e+05 9.874016e+04 -5.000000e+04
-3.495547e+05 9.060720e+04 -2.563270e+04
-3.071185e+05 -3.486990e+05 -2.261025e+04
-3.153762e+05 -3.243183e+05 -5.000000e+04
-3.287827e+05 -3.355430e+05 -2.504110e+04
-3.095113e+05 -3.153966e+05 -2.507638e+04
-2.962358e+05 -3.323448e+05 0.000000e+00
-3.357456e+05 -3.422369e+05 0.000000e+00
-2.772919e+05 -3.669732e+05 0.000000e+00
-2.934123e+05 -3.742563e+05 -2.511903e+04
-2.806419e+05 -3.463229e+05 -2.661752e+04
-3.140042e+05 -3.607419e+05 -5.000000e+04
-3.320497e+05 -3.703516e+05 -2.524928e+04
-3.224905e+05 6.841821e+04 -2.756000e+04
-3.000000e+05 4.234958e+04 -2.422604e+04
-3.000000e+05 5.362570e+04 -5.000000e+04
-3.000000e+05 7.749820e+04 -2.479801e+04
3.227610e+05 -1.685566e+05 -2.697912e+04
3.499303e+05 -1.919500e+05 -2.498446e+04
3.500600e+05 -1.567367e+05 -2.546429e+04
3.335574e+05 -1.858748e+05 0.000000e+00
3.000000e+05 -1.659466e+05 0.000000e+00
3.208602e+05 -1.947095e+05 -2.232217e+04
3.000000e+05 -1.806737e+05 -2.506219e+04
3.330650e+05 -1.842018e+05 -5.000000e+04
3.000000e+05 -1.978940e+05 -5.000000e+04
3.000000e+05 -1.638587e+05 -5.000000e+04
-1.949782e+05 -3.787045e+05 -2.503133e+04
-1.713812e+05 -3.663209e+05 -5.000000e+04
-1.725141e+05 -3.772415e+05 -2.530126e+04
-1.913043e+05 -4.000000e+05 -5.000000e+04
-1.972219e+05 -3.510331e+05 -2.499278e+04
-1.739069e+05 -4.000000e+05 -2.478809e+04
-1.716829e+05 -3.668361e+05 0.000000e+00
-1.913043e+05 -4.000000e+05 0.000000e+00
1.358880e+05 -3.243044e+05 -2.504137e+04
1.166322e+05 -3.000000e+05 -2.516475e+04
1.497984e+05 -3.000000e+05 -2.516553e+04
1.333333e+05 -3.000000e+05 -5.000000e+04
1.825802e+05 3.751615e+05 -2.720292e+04
2.119132e+05 3.796036e+05 -2.524922e+04
2.061857e+05 3.668333e+05 0.000000e+00
1.947422e+05 3.503722e+05 -2.524152e+04
1.565217e+05 4.000000e+05 0.000000e+00
1.528807e+05 3.759790e+05 -2.499953e+04
1.739069e+05 4.000000e+05 -2.478809e+04
1.716839e+05 3.668365e+05 0.000000e+00
1.913043e+05 4.000000e+05 0.000000e+00
1.565217e+05 4.000000e+05 -5.000000e+04
1.713714e+05 3.663108e+05 -5.000000e+04
1.613560e+05 3.500277e+05 -2.506640e+04
-8.982230e+04 3.792244e+05 -2.494679e+04
-6.535746e+04 3.800015e+05 -2.495585e+04
-6.848071e+04 3.663195e+05 -5.000000e+04
-8.695652e+04 4.000000e+05 -5.000000e+04
-6.956522e+04 4.000000e+05 -2.478801e+04
-9.132937e+04 3.518806e+05 -2.497956e+04
-8.695652e+04 4.000000e+05 0.000000e+00
-6.863978e+04 3.668364e+05 0.000000e+00
8.983161e+04 -3.792230e+05 -2.494676e+04
8.695652e+04 -4.000000e+05 -5.000000e+04
6.956522e+04 -4.000000e+05 -2.478801e+04
8.695652e+04 -4.000000e+05 0.000000e+00
9.134075e+04 -3.518804e+05 -2.497894e+04
6.864043e+04 -3.668360e+05 0.000000e+00
-1.485035e+05 -3.773486e+05 -2.721498e+04
-1.630495e+05 -3.485427e+05 -2.521974e+04
-1.185212e+05 -3.761066e+05 -2.504756e+04
-1.217391e+05 -4.000000e+05 -5.000000e+04
-1.370985e+05 -3.663236e+05 -5.000000e+04
-1.217391e+05 -4.000000e+05 0.000000e+00
-1.391294e+05 -4.000000e+05 -2.478846e+04
-1.373218e+05 -3.668365e+05 0.000000e+00
-1.565217e+05 -4.000000e+05 0.000000e+00
-1.276844e+05 -3.500075e+05 -2.505733e+04
-3.784905e+05 1.568709e+05 -2.476156e+04
-3.664298e+05 1.337587e+05 -5.000000e+04
-3.514457e+05 1.599418e+05 -2.483113e+04
-4.000000e+05 1.565217e+05 -5.000000e+04
-4.000000e+05 1.391294e+05 -2.478846e+04
-3.668349e+05 1.375908e+05 0.000000e+00
-4.000000e+05 1.565217e+05 0.000000e+00
3.668265e+05 -1.714683e+05 0.000000e+00
4.000000e+05 -1.913043e+05 0.000000e+00
4.000000e+05 -1.739069e+05 -2.478809e+04
4.000000e+05 -1.565217e+05 0.000000e+00
3.763528e+05 1.812702e+05 -2.493822e+04
4.000000e+05 1.565217e+05 0.000000e+00
3.764050e+05 1.528124e+05 -2.490916e+04
4.000000e+05 1.739130e+05 -2.478510e+04
3.668383e+05 1.722952e+05 0.000000e+00
3.797466e+05 2.119345e+05 -2.497186e+04
4.000000e+05 1.913043e+05 -5.000000e+04
3.662642e+05 2.068445e+05 -5.000000e+04
3.507120e+05 1.619053e+05 -2.490325e+04
3.662844e+05 1.729597e+05 -5.000000e+04
4.000000e+05 1.565217e+05 -5.000000e+04
3.776488e+05 -7.900637e+04 -2.735718e+04
3.762845e+05 -4.901174e+04 -2.508786e+04
3.663605e+05 -6.676216e+04 -5.000000e+04
3.502306e+05 -5.807827e+04 -2.511783e+04
4.000000e+05 -5.217391e+04 -5.000000e+04
3.773063e+05 -1.038824e+05 -2.578879e+04
4.000000e+05 -8.695652e+04 0.000000e+00
3.668372e+05 -1.026508e+05 0.000000e+00
4.000000e+05 -5.217391e+04 0.000000e+00
4.000000e+05 -6.956519e+04 -2.478879e+04
3.668380e+05 -6.826645e+04 0.000000e+00
4.000000e+05 -1.043476e+05 -2.478869e+04
-1.666667e+05 -3.000000e+05 -5.000000e+04
-1.833333e+05 -3.000000e+05 -2.518468e+04
-1.933582e+05 -3.216521e+05 -2.503520e+04
-1.657267e+05 -3.213415e+05 -2.506307e+04
-1.666667e+05 -3.000000e+05 0.000000e+00
3.334882e+05 -2.202831e+05 0.000000e+00
3.000000e+05 -1.994599e+05 0.000000e+00
3.000000e+05 -2.085861e+05 -2.501244e+04
-1.859359e+05 -3.331067e+05 -5.000000e+04
-1.862587e+05 -3.335758e+05 0.000000e+00
-4.132523e+04 3.761107e+05 -2.495957e+04
-3.478261e+04 4.000000e+05 -2.478841e+04
-5.217391e+04 4.000000e+05 -5.000000e+04
-1.739130e+04 4.000000e+05 -5.000000e+04
-1.424890e+04 3.757408e+05 -2.497844e+04
-3.421938e+04 3.663190e+05 -5.000000e+04
-5.217391e+04 4.000000e+05 0.000000e+00
-1.739130e+04 4.000000e+05 0.000000e+00
-3.431405e+04 3.668365e+05 0.000000e+00
-2.739007e+04 3.505180e+05 -2.498776e+04
-1.739130e+05 4.000000e+05 -2.478510e+04
-1.528672e+05 3.759826e+05 -2.500255e+04
-1.716148e+05 3.668263e+05 0.000000e+00
-1.825315e+05 3.751689e+05 -2.721318e+04
-1.913043e+05 4.000000e+05 0.000000e+00
-2.059314e+05 3.667832e+05 0.000000e+00
-2.118669e+05 3.796033e+05 -2.526514e+04
-1.612599e+05 3.500460e+05 -2.507149e+04
-1.913043e+05 4.000000e+05 -5.000000e+04
-2.056558e+05 3.663226e+05 -5.000000e+04
-1.712892e+05 3.663242e+05 -5.000000e+04
-1.565217e+05 4.000000e+05 -5.000000e+04
3.507710e+05 -3.071241e+05 -1.983709e+04
3.472371e+05 -2.783609e+05 -2.630278e+04
3.316724e+05 -2.967750e+05 0.000000e+00
3.666108e+05 -2.775848e+05 0.000000e+00
3.309559e+05 -3.255688e+05 -2.698212e+04
3.397681e+05 -3.369212e+05 0.000000e+00
3.744093e+05 -2.934608e+05 -2.492539e+04
3.303054e+05 -2.869393e+05 -5.000000e+04
3.606270e+05 -3.135064e+05 -5.000000e+04
-3.238506e+05 1.781151e+05 -2.284516e+04
-3.335738e+05 1.866432e+05 0.000000e+00
-3.000000e+05 1.673499e+05 0.000000e+00
-3.000000e+05 2.005124e+05 0.000000e+00
-3.242363e+05 2.019112e+05 -2.479758e+04
-3.335722e+05 1.528704e+05 0.000000e+00
-3.219833e+05 1.550144e+05 -2.418889e+04
-3.331119e+05 1.814444e+05 -5.000000e+04
-3.500623e+05 1.947691e+05 -2.492389e+04
3.000000e+05 -1.480457e+05 -2.518612e+04
3.070808e+05 3.546107e+05 -1.714572e+04
2.838715e+05 3.432764e+05 -2.626473e+04
2.962288e+05 3.323792e+05 0.000000e+00
2.772894e+05 3.669850e+05 0.000000e+00
3.214547e+05 3.369143e+05 -2.636251e+04
3.136723e+05 3.607135e+05 -5.000000e+04
2.935138e+05 3.747013e+05 -2.499119e+04
3.357389e+05 3.423035e+05 0.000000e+00
3.310854e+05 3.708053e+05 -2.520548e+04
-3.303425e+05 2.864208e+05 -5.000000e+04
-3.469504e+05 2.817468e+05 -2.677742e+04
-3.300427e+05 3.281790e+05 -2.631692e+04
-3.606526e+05 3.133330e+05 -5.000000e+04
-3.538099e+05 3.084519e+05 -1.787405e+04
-3.749470e+05 2.933940e+05 -2.493585e+04
-3.716865e+05 3.330494e+05 -2.604840e+04
-3.422611e+05 3.357632e+05 0.000000e+00
-3.323575e+05 2.962961e+05 0.000000e+00
-3.669772e+05 2.773495e+05 0.000000e+00
-3.208683e+05 1.285984e+05 -2.543766e+04
-3.000000e+05 1.341874e+05 0.000000e+00
-3.000000e+05 1.457374e+05 -2.479770e+04
-3.331557e+05 1.463574e+05 -5.000000e+04
-3.335717e+05 1.191216e+05 0.000000e+00
-3.000000e+05 1.116890e+05 -2.479816e+04
3.750985e+05 1.731082e+04 -2.495385e+04
3.668370e+05 3.487991e+04 0.000000e+00
3.766226e+05 5.120408e+04 -2.491509e+04
3.486553e+05 3.094323e+04 -2.470062e+04
3.664079e+05 2.208090e+03 -5.000000e+04
3.755591e+05 -1.521008e+04 -2.489784e+04
3.365423e+05 9.969610e+02 -2.491966e+04
3.668382e+05 4.985393e+02 0.000000e+00
4.000000e+05 8.858707e-04 -2.478866e+04
4.000000e+05 1.739130e+04 0.000000e+00
3.664904e+05 3.662308e+04 -5.000000e+04
4.000000e+05 1.739130e+04 -5.000000e+04
4.000000e+05 3.478261e+04 -2.478841e+04
3.241835e+05 -1.338846e+05 -2.511108e+04
3.331162e+05 -1.156285e+05 -5.000000e+04
3.331063e+05 -1.499070e+05 -5.000000e+04
3.000000e+05 -1.298234e+05 -5.000000e+04
3.000000e+05 -1.142814e+05 -2.518156e+04
3.501925e+05 -1.229656e+05 -2.536930e+04
3.335703e+05 -1.518628e+05 0.000000e+00
3.335746e+05 -1.178848e+05 0.000000e+00
3.000000e+05 -1.324332e+05 0.000000e+00
-1.185180e+05 -3.335740e+05 0.000000e+00
-1.333333e+05 -3.000000e+05 0.000000e+00
-1.000000e+05 -3.000000e+05 0.000000e+00
-1.166667e+05 -3.000000e+05 -2.516967e+04
3.767701e+05 8.545747e+04 -2.498937e+04
4.000000e+05 8.695652e+04 -5.000000e+04
3.664910e+05 7.093362e+04 -5.000000e+04
3.664147e+05 1.050627e+05 -5.000000e+04
4.000000e+05 8.695652e+04 0.000000e+00
3.668311e+05 6.925743e+04 0.000000e+00
4.000000e+05 6.956522e+04 -2.478801e+04
3.532003e+05 6.143720e+04 -2.460611e+04
3.529343e+05 9.380645e+04 -2.566405e+04
-6.874474e+04 -3.242435e+05 -2.504036e+04
[...]
POINT_DATA 9490
VECTORS displacement double
1.988092e-04 -2.403024e-05 2.035396e-05
1.998634e-04 0.000000e+00 2.453957e-05
2.024198e-04 -3.670935e-05 1.769960e-05
2.029263e-04 0.000000e+00 2.230385e-05
1.947535e-04 -3.133410e-05 2.063400e-05
1.903489e-04 -1.185157e-05 2.173247e-05
1.946988e-04 0.000000e+00 2.634632e-05
2.031902e-04 0.000000e+00 2.111694e-05
1.911001e-04 -1.856821e-05 1.790201e-05
2.125459e-04 0.000000e+00 1.931061e-05
2.067490e-04 -4.020429e-05 1.514603e-05
0.000000e+00 1.496539e-04 -5.068783e-05
-3.281095e-05 1.894785e-04 -4.470161e-05
-2.792466e-05 1.829603e-04 -5.925063e-05
-2.918353e-05 1.684469e-04 -5.373165e-05
0.000000e+00 1.547692e-05 -1.632074e-06
9.342095e-06 2.881968e-05 -2.332968e-06
8.625894e-06 1.136970e-05 -1.350280e-06
1.107440e-05 2.138927e-05 -1.769841e-06
0.000000e+00 1.393868e-04 -5.468945e-05
-1.329727e-05 1.420844e-04 -5.632968e-05
-7.763857e-05 2.500731e-04 -6.422213e-05
-3.701518e-05 1.530003e-04 -5.570411e-05
-4.534046e-05 2.104593e-04 -7.082180e-05
-1.104962e-04 -6.531980e-05 5.876912e-06
-1.237979e-04 -9.092932e-05 -1.559618e-05
-9.675659e-05 -5.246353e-05 5.053050e-06
-1.225143e-04 -1.051758e-04 -2.784784e-05
-1.128004e-04 -8.387820e-05 -8.986163e-06
-8.009740e-05 -2.671635e-05 1.635873e-05
-1.106494e-04 -5.800105e-05 1.337876e-05
-1.133712e-04 -4.231803e-05 1.699806e-05
-1.285393e-04 -1.092286e-04 -8.742177e-06
-1.108955e-04 -5.148155e-05 1.432640e-05
-8.639636e-05 -2.311296e-05 2.681215e-05
-3.488442e-05 2.847703e-04 -8.067127e-05
5.285400e-05 3.550091e-04 -2.526094e-05
-9.859518e-06 2.851290e-04 -6.738249e-05
-1.186542e-04 4.587005e-04 -1.345236e-04
-3.778415e-05 5.485763e-05 -1.267291e-05
-1.822181e-05 5.544243e-05 -1.075163e-05
-2.761752e-05 4.975649e-05 -1.302790e-05
-2.633175e-05 5.765430e-05 -1.216065e-05
-5.055652e-05 5.886142e-05 -1.422939e-05
-2.653500e-05 5.826636e-05 -1.085335e-05
-4.197999e-05 5.934861e-05 -1.220228e-05
-2.677922e-05 5.521894e-05 -1.073472e-05
-3.232901e-05 6.008400e-05 -9.852072e-06
-5.199109e-05 5.612308e-05 -1.241429e-05
-5.870350e-05 -9.189556e-05 -1.162665e-05
-2.609507e-05 -1.641707e-04 -2.662770e-05
-2.377152e-05 -1.036156e-04 -1.428785e-05
-5.555148e-05 0.000000e+00 -4.786111e-06
-7.154500e-05 -2.150429e-04 -4.162456e-05
-2.486954e-05 0.000000e+00 -6.453690e-06
-2.214612e-05 -1.345663e-04 -1.767683e-05
-4.856577e-05 0.000000e+00 3.459457e-06
1.188036e-04 1.737043e-05 1.037873e-05
1.115011e-04 1.163923e-05 5.029159e-06
8.909491e-05 3.081086e-05 5.483593e-06
1.029719e-04 2.178342e-05 4.886833e-06
1.527733e-04 -8.075156e-07 2.560618e-05
1.331619e-04 -2.834799e-06 2.179737e-05
1.385938e-04 -4.987889e-06 2.382162e-05
1.405992e-04 -4.473685e-06 2.325926e-05
1.749816e-04 0.000000e+00 3.193875e-05
1.723116e-04 3.007069e-06 3.031922e-05
1.604138e-04 0.000000e+00 2.706401e-05
1.625266e-04 1.124397e-07 2.903803e-05
1.515119e-04 0.000000e+00 2.642430e-05
1.698608e-04 0.000000e+00 2.783896e-05
1.578714e-04 1.307281e-06 2.522635e-05
1.625925e-04 3.835632e-06 2.810913e-05
1.510366e-04 5.985981e-05 7.143009e-05
1.737611e-04 5.217193e-05 6.896314e-05
1.708943e-04 9.375919e-05 6.272557e-05
1.544787e-04 0.000000e+00 6.689166e-05
1.703248e-04 0.000000e+00 6.978842e-05
1.487467e-04 1.402472e-04 6.759648e-05
1.563991e-04 0.000000e+00 7.707501e-05
1.725171e-04 8.509528e-05 7.308012e-05
1.757974e-04 -4.696338e-06 2.096759e-05
1.841940e-04 0.000000e+00 2.038349e-05
1.894629e-04 0.000000e+00 2.274480e-05
1.796092e-04 0.000000e+00 2.499442e-05
1.671958e-04 -9.083347e-06 1.674398e-05
1.836251e-04 -1.289419e-05 2.196494e-05
1.859561e-05 -1.076586e-04 -1.604939e-05
-1.350535e-05 -2.503999e-04 -5.145671e-05
7.417141e-05 -1.104096e-04 -1.475910e-05
7.208698e-05 0.000000e+00 -6.107677e-06
4.105486e-05 -1.688207e-04 -2.685665e-05
6.528474e-05 0.000000e+00 8.916685e-07
3.752553e-05 0.000000e+00 -6.252584e-06
3.719656e-05 -1.379323e-04 -1.691892e-05
7.188210e-06 0.000000e+00 2.106257e-07
5.557866e-05 -2.430292e-04 -4.681701e-05
-3.270778e-05 2.104261e-04 -2.645701e-05
-5.737302e-05 2.011126e-04 -4.657536e-05
-7.561455e-05 2.574724e-04 -3.566855e-05
0.000000e+00 1.947086e-04 -2.251764e-05
0.000000e+00 1.853390e-04 -3.542699e-05
-4.109620e-05 2.024654e-04 -4.137117e-05
0.000000e+00 1.856793e-04 -2.149002e-05
-1.526753e-05 5.281485e-05 -1.282098e-05
0.000000e+00 5.462080e-05 -1.140078e-05
0.000000e+00 5.110477e-05 -1.189526e-05
0.000000e+00 4.898576e-05 -1.369227e-05
1.228675e-06 -6.292984e-05 -5.352851e-07
0.000000e+00 -6.570224e-05 -2.847292e-06
-2.253231e-06 -6.312309e-05 -3.192537e-06
0.000000e+00 -6.371330e-05 -1.229730e-06
4.106362e-07 -6.535901e-05 -1.404814e-06
3.987221e-06 -6.005003e-05 2.219543e-06
0.000000e+00 -6.107452e-05 2.475210e-07
6.258971e-06 -5.907705e-05 1.669666e-06
-2.705998e-06 -6.298150e-05 -2.240355e-06
5.498384e-08 -6.177644e-05 -1.183447e-06
0.000000e+00 -6.205784e-05 -2.881903e-06
-1.873580e-05 2.028606e-05 -1.563903e-05
-2.085708e-05 5.835962e-06 -1.591676e-05
-2.908050e-05 1.478919e-05 -1.479670e-05
-4.388250e-05 1.126464e-05 -1.644096e-05
0.000000e+00 7.203462e-06 -1.467730e-05
-1.754663e-05 3.111994e-05 -1.508743e-05
0.000000e+00 2.408045e-05 -1.645811e-05
-2.598309e-05 3.173392e-05 -1.633083e-05
0.000000e+00 7.109229e-06 -1.686826e-05
0.000000e+00 1.557883e-05 -1.567732e-05
-2.881006e-05 1.570142e-05 -1.704649e-05
0.000000e+00 3.122998e-05 -1.505422e-05
-4.473851e-05 -5.575211e-04 -1.842366e-04
-7.787540e-05 -5.305962e-04 -1.819813e-04
-8.186612e-05 -3.712254e-04 -1.069468e-04
-2.839565e-05 -4.069161e-04 -1.172167e-04
-3.643281e-05 -4.898699e-04 -1.759849e-04
-1.304121e-05 5.866451e-05 -9.407776e-06
-3.116920e-05 6.266841e-05 -1.120193e-05
-2.549314e-05 6.099068e-05 -9.697793e-06
-6.717978e-05 -3.270316e-04 -7.989821e-05
-5.553892e-05 -2.715790e-04 -6.975043e-05
1.912932e-04 5.568959e-05 6.539980e-05
1.962647e-04 0.000000e+00 6.507163e-05
1.839519e-04 0.000000e+00 6.285807e-05
2.045022e-04 0.000000e+00 5.779749e-05
2.054692e-04 4.885039e-05 6.114523e-05
1.955799e-04 7.908954e-05 5.877743e-05
1.863108e-04 0.000000e+00 7.267726e-05
2.078378e-04 0.000000e+00 6.738898e-05
1.978286e-04 7.166628e-05 6.798301e-05
1.983158e-04 1.065267e-04 6.022819e-05
6.101195e-05 0.000000e+00 7.846303e-05
8.287564e-05 7.656253e-05 7.598977e-05
6.249133e-05 1.007262e-04 8.164579e-05
5.035697e-05 7.810028e-05 7.696999e-05
4.477348e-05 0.000000e+00 8.521071e-05
2.753922e-05 9.596012e-05 8.284431e-05
2.249202e-05 6.112821e-05 7.894612e-05
6.933935e-05 1.609054e-04 7.134498e-05
4.246643e-05 0.000000e+00 7.368947e-05
2.517704e-05 1.064603e-04 7.130469e-05
6.028819e-05 1.117206e-04 6.989017e-05
7.919794e-05 0.000000e+00 7.217439e-05
1.110677e-05 3.900796e-05 -3.246863e-06
5.709168e-06 4.740196e-05 -4.757035e-06
1.393209e-05 4.437357e-05 -3.565533e-06
3.402061e-06 4.824615e-05 -5.455743e-06
2.021101e-05 3.268571e-05 -1.850901e-06
1.987000e-05 2.887927e-05 -1.774321e-06
4.299494e-06 4.237192e-05 -4.211944e-06
9.956944e-06 4.512004e-05 -3.601427e-06
9.497271e-06 3.564834e-05 -2.821800e-06
-1.082662e-04 3.316192e-04 -3.733679e-05
-7.904324e-05 2.786681e-04 -1.664823e-05
-1.184128e-04 4.063697e-04 -7.092954e-05
-9.988501e-05 3.609975e-04 -2.313793e-05
-9.422369e-05 3.112585e-04 -1.012743e-05
-8.530369e-05 2.931895e-04 -5.241650e-05
-1.248523e-04 3.510363e-04 -6.728269e-05
-1.065012e-04 3.060866e-04 -2.854521e-05
-6.842098e-05 2.583500e-04 -4.797088e-06
-6.000754e-05 5.315539e-05 -1.459187e-05
6.327566e-05 -1.623607e-05 1.311883e-05
7.747447e-05 -1.848237e-05 1.394192e-05
6.872318e-05 -2.406877e-05 1.365613e-05
8.711585e-05 -1.096945e-05 1.623636e-05
5.104817e-05 -2.299038e-05 1.144413e-05
5.843114e-05 -1.386141e-05 1.161210e-05
7.442830e-05 -8.647265e-06 1.406809e-05
4.301559e-05 -2.245891e-05 1.197473e-05
4.775477e-05 -1.104718e-05 1.202013e-05
-4.723367e-05 2.064966e-04 5.153690e-05
-3.790312e-05 1.882967e-04 5.583694e-05
-2.906868e-05 1.317510e-04 7.239357e-05
-2.244594e-05 1.435231e-04 6.364158e-05
-2.469079e-05 1.460774e-04 6.829996e-05
-1.633739e-05 1.573873e-04 6.245775e-05
-1.322639e-05 1.054755e-04 7.367922e-05
-2.311865e-05 1.070783e-04 8.012430e-05
-3.562773e-05 1.705089e-04 6.690620e-05
-2.400863e-05 1.679838e-04 6.042815e-05
-1.270296e-04 3.602354e-04 -9.533817e-05
-1.289012e-04 4.540375e-04 -1.201231e-04
-1.622819e-04 4.570572e-04 -1.104962e-04
-1.183024e-04 3.002776e-04 -6.102763e-05
-7.670039e-05 2.955005e-04 -7.985036e-05
-1.664244e-04 4.792124e-04 -1.470287e-04
-1.959301e-05 -2.677576e-05 -1.406219e-05
-2.448522e-05 -3.584428e-05 -1.403049e-05
-1.566926e-05 -4.104737e-05 -1.201935e-05
-3.862770e-05 -3.269168e-05 -1.373661e-05
-2.828403e-05 -1.896225e-05 -1.378486e-05
-2.125874e-05 -1.108883e-05 -1.537132e-05
-5.356699e-05 -1.838175e-05 -1.553714e-05
-2.811636e-05 -1.965850e-05 -1.591535e-05
0.000000e+00 -1.873711e-05 -1.470180e-05
0.000000e+00 -2.806523e-05 -1.486286e-05
-2.458057e-05 -3.436015e-05 -1.212109e-05
0.000000e+00 -2.624100e-05 -1.294352e-05
0.000000e+00 -3.445703e-05 -1.297548e-05
-5.040891e-05 4.600943e-05 -1.486667e-05
-4.977451e-05 3.824352e-05 -1.428580e-05
-3.920852e-05 4.904106e-05 -1.285592e-05
-6.990411e-05 4.721912e-05 -1.453520e-05
-7.626021e-05 4.156751e-05 -1.642402e-05
-3.541263e-05 3.980483e-05 -1.477935e-05
-3.855364e-05 5.127264e-05 -1.459408e-05
-4.909245e-05 4.015287e-05 -1.651156e-05
-6.900633e-05 4.954337e-05 -1.663116e-05
6.376542e-05 -2.845699e-04 -6.604574e-05
2.890478e-05 -4.950959e-04 -1.733008e-04
9.168597e-05 -4.515505e-04 -1.501153e-04
7.684829e-05 -5.399885e-04 -1.735856e-04
-1.151809e-05 -5.247900e-05 -9.357707e-06
0.000000e+00 -5.173550e-05 -8.566174e-06
-1.927724e-05 -4.692209e-05 -9.873709e-06
-1.323422e-05 -5.589469e-05 -7.149696e-06
0.000000e+00 -5.482533e-05 -9.785941e-06
-1.954593e-05 -4.917793e-05 -1.138302e-05
0.000000e+00 -4.760217e-05 -1.056419e-05
-2.956553e-05 -4.458581e-05 -1.150302e-05
-2.132222e-05 -5.454165e-05 -8.717920e-06
1.570888e-04 -3.024499e-04 -6.969492e-05
1.802942e-04 -4.140547e-04 -1.189966e-04
1.443238e-04 -2.979393e-04 -6.210662e-05
1.406657e-04 -4.639399e-04 -1.421687e-04
1.876228e-04 -2.354224e-04 -4.145256e-05
1.876204e-04 -2.244340e-04 -4.313960e-05
1.635480e-04 -1.793373e-04 -2.288838e-05
1.792743e-04 -3.567360e-04 -1.010079e-04
1.360308e-04 -3.685837e-04 -1.141219e-04
1.182098e-04 -2.505204e-04 -5.189041e-05
1.574141e-04 -1.986943e-04 -3.313956e-05
2.106080e-04 -7.001928e-05 8.198720e-06
1.856416e-04 -3.302150e-05 1.449706e-05
1.933502e-04 -5.525082e-05 1.595643e-05
5.260979e-05 2.469329e-04 6.104749e-05
6.890280e-05 3.357958e-04 4.477845e-05
7.712715e-05 2.045674e-04 7.145311e-05
4.792273e-05 3.152232e-04 5.168970e-05
3.866187e-05 2.000541e-04 7.327286e-05
7.559027e-05 2.266799e-04 5.933836e-05
4.540675e-05 3.494569e-04 4.048408e-05
1.689397e-05 2.343735e-04 6.315932e-05
3.317415e-05 1.546624e-04 7.298663e-05
3.507227e-05 2.217275e-04 6.093372e-05
9.368945e-05 2.463022e-04 5.950264e-05
9.161617e-05 3.461869e-04 3.961495e-05
1.172694e-04 2.192466e-04 5.792586e-05
1.125551e-04 3.238304e-04 4.467089e-05
1.088190e-04 1.575221e-04 6.961515e-05
1.172570e-04 1.982985e-04 6.959711e-05
9.046997e-05 3.132575e-04 5.054658e-05
2.140457e-05 1.049235e-04 -4.184453e-05
7.280312e-06 1.005876e-04 -4.717843e-05
7.164164e-05 5.982257e-05 -1.653586e-05
0.000000e+00 6.523549e-05 -3.895701e-05
1.693861e-05 1.620717e-04 -5.261468e-05
0.000000e+00 1.107514e-04 -5.066715e-05
2.246224e-06 1.557235e-04 -5.772104e-05
0.000000e+00 1.134747e-04 -4.783741e-05
5.170470e-05 1.268917e-04 -3.259035e-05
6.462364e-06 -6.129328e-05 9.854227e-07
6.413769e-06 -6.247344e-05 2.062608e-06
0.000000e+00 -6.432514e-05 3.855582e-07
1.439066e-05 -5.625772e-05 3.954527e-06
0.000000e+00 -5.957606e-05 3.481919e-06
0.000000e+00 -6.011757e-05 1.887674e-06
0.000000e+00 -5.650082e-05 3.115509e-06
-2.638753e-05 3.016396e-05 -1.423755e-05
-4.085487e-05 2.683170e-05 -1.595969e-05
-4.351660e-05 -4.762116e-06 -1.613811e-05
-2.971857e-05 -2.183411e-06 -1.468901e-05
0.000000e+00 -1.511665e-06 -1.565229e-05
-1.275283e-04 -1.085233e-04 -1.159447e-04
-1.272847e-04 -7.519835e-05 -8.873300e-05
-1.944486e-04 -2.163541e-04 -1.821803e-04
-1.715121e-04 -2.254615e-04 -1.523050e-04
-2.946500e-05 -1.947706e-06 -1.692445e-05
2.092159e-04 9.583833e-05 4.690654e-05
2.124499e-04 9.626275e-05 5.492824e-05
2.043624e-04 1.507734e-04 4.382959e-05
2.045008e-04 1.208420e-04 4.571347e-05
2.050116e-04 1.317618e-04 3.893855e-05
2.087047e-04 7.478111e-05 4.242007e-05
2.003803e-04 1.050888e-04 4.059218e-05
2.115556e-04 6.816234e-05 4.923808e-05
2.022830e-04 6.413542e-05 4.175470e-05
2.100327e-04 4.878308e-05 4.601362e-05
2.132921e-04 6.854933e-05 5.157198e-05
1.723243e-04 -7.912870e-05 1.229492e-06
1.608120e-04 -1.315707e-04 -1.152682e-05
1.791308e-04 0.000000e+00 5.819419e-06
1.501739e-04 0.000000e+00 4.464738e-06
1.437002e-04 -1.088567e-04 -2.791129e-06
1.627518e-04 0.000000e+00 1.313016e-05
1.770445e-04 -8.264155e-05 7.438942e-06
1.960792e-04 -9.922555e-05 -4.005067e-07
1.963832e-04 -5.903896e-05 1.054499e-05
1.896086e-04 -1.339648e-04 -8.536445e-06
1.849992e-04 0.000000e+00 1.246829e-05
2.023963e-04 4.317615e-05 4.296482e-05
1.972579e-04 8.018556e-05 4.147075e-05
1.963044e-04 8.839533e-05 3.553790e-05
1.986572e-04 4.791484e-05 3.716575e-05
1.888258e-04 6.630079e-05 3.643199e-05
1.888007e-04 3.774348e-05 3.623838e-05
1.992921e-04 3.037947e-05 3.981035e-05
1.790977e-04 8.953414e-06 3.037230e-05
1.469349e-04 0.000000e+00 2.292983e-05
-4.158631e-05 -1.042078e-05 -1.814057e-05
-8.641705e-05 -4.586557e-05 -4.481725e-05
-5.611608e-05 -1.837934e-06 -5.547504e-05
-5.025681e-05 3.923902e-06 -3.658737e-05
1.841096e-04 7.204297e-06 3.499506e-05
9.522561e-05 -1.289293e-04 -1.178475e-05
1.069835e-04 -1.560692e-04 -2.116312e-05
1.300418e-04 -9.932782e-05 -8.298265e-06
1.170721e-04 -2.192689e-04 -3.706483e-05
9.863764e-05 0.000000e+00 -2.030325e-06
5.304265e-06 0.000000e+00 -7.029241e-06
-7.040052e-05 -1.165531e-04 -1.091599e-05
-8.272049e-05 -1.441456e-04 -1.979935e-05
8.302223e-06 3.651596e-05 -3.389329e-06
0.000000e+00 3.828451e-05 -3.687367e-06
0.000000e+00 4.267490e-05 -4.462003e-06
8.761202e-05 1.203156e-04 -1.946499e-05
2.075877e-04 1.094550e-04 3.291700e-05
0.000000e+00 1.154138e-04 -2.201167e-05
1.118015e-04 8.668470e-05 -1.509442e-06
7.571851e-05 7.597775e-05 -3.778659e-05
0.000000e+00 5.451508e-05 7.847506e-05
-7.859023e-06 3.611051e-05 8.463563e-05
-1.111869e-05 7.816560e-05 8.166300e-05
-1.046253e-05 5.080358e-05 7.818934e-05
1.814519e-04 1.301209e-04 1.956406e-05
6.000521e-05 1.140231e-04 -5.504862e-05
1.609735e-04 9.189493e-05 -2.884756e-06
1.257831e-04 1.518538e-04 -2.336061e-05
1.432175e-04 -2.525682e-06 1.054745e-05
1.584236e-04 -1.115286e-05 1.363537e-05
1.192115e-04 2.753921e-06 4.862268e-06
1.356166e-04 -2.108674e-05 7.464753e-07
1.667729e-04 -1.827005e-05 1.038530e-05
1.284134e-04 -3.215799e-06 3.111119e-06
1.408686e-04 5.398261e-06 1.149013e-05
1.372732e-04 1.030131e-05 1.398007e-05
1.409644e-04 7.830279e-06 1.509884e-05
1.342186e-04 2.309084e-04 5.844389e-05
1.549325e-04 2.004888e-04 5.630545e-05
1.682488e-04 2.060019e-04 5.678224e-05
1.514499e-04 2.941986e-04 4.523172e-05
0.000000e+00 3.211706e-05 -4.178652e-05
0.000000e+00 9.451042e-06 -2.835247e-05
1.353673e-04 3.234241e-04 4.083084e-05
6.094112e-05 8.214891e-05 -1.434986e-05
1.103138e-04 1.047579e-04 -1.724581e-06
1.415578e-04 6.001661e-05 1.287400e-05
0.000000e+00 8.206624e-05 -3.377150e-05
1.773499e-04 8.699216e-05 3.024026e-05
0.000000e+00 7.562881e-05 -1.461727e-05
9.917867e-05 1.070033e-04 1.310871e-06
1.377052e-04 1.050878e-04 6.609002e-05
1.369110e-04 0.000000e+00 7.414653e-05
-8.690898e-05 -1.844105e-05 -1.759097e-05
-8.049207e-05 -2.719569e-05 -1.529844e-05
-8.970337e-05 -9.699882e-06 -1.703811e-05
1.784747e-04 1.271254e-04 6.398605e-05
9.601602e-05 2.845458e-05 8.450545e-06
1.153591e-04 1.938843e-05 1.004919e-05
8.011892e-05 3.603805e-05 4.529309e-06
9.160921e-05 2.708268e-05 7.629943e-06
1.147274e-04 2.323940e-05 1.192626e-05
7.853134e-05 4.011172e-05 5.492264e-06
7.560245e-05 3.378104e-05 5.835548e-06
9.319214e-05 2.194809e-05 8.846102e-06
9.269194e-05 3.001684e-05 8.853750e-06
-9.504684e-05 -8.781694e-05 -5.620288e-06
-1.107474e-04 -1.775015e-04 -3.068236e-05
-1.171040e-04 -8.185884e-05 3.266931e-06
-1.014462e-04 -8.844347e-05 1.075855e-06
-1.060538e-04 0.000000e+00 1.002237e-05
-8.691341e-05 0.000000e+00 1.032821e-05
-9.428486e-05 -7.020073e-05 -8.894293e-05
-1.291790e-04 -1.172501e-04 -7.357536e-05
1.267494e-04 0.000000e+00 2.182611e-05
1.173802e-04 -1.027236e-05 1.919289e-05
1.346779e-04 -3.946138e-06 2.077309e-05
1.227152e-04 0.000000e+00 1.880827e-05
-4.839387e-05 -4.265714e-05 -1.253608e-05
-4.445892e-05 -4.273131e-05 -1.332093e-05
-5.939763e-05 -4.877263e-05 -1.250528e-05
-7.560335e-05 -3.516923e-05 -1.540575e-05
-4.365468e-05 -4.131286e-05 -1.136454e-05
-3.159449e-05 -5.388589e-05 -9.000397e-06
-3.346265e-05 -5.418725e-05 -1.039842e-05
-3.215450e-05 -5.208693e-05 -8.652743e-06
-6.568696e-05 -4.278716e-05 -1.258166e-05
-1.501616e-05 4.057346e-05 -1.405281e-05
0.000000e+00 3.701500e-05 -1.334744e-05
0.000000e+00 3.844518e-05 -1.544193e-05
0.000000e+00 2.329204e-05 -1.444105e-05
-5.872299e-05 -1.037637e-05 -1.743124e-05
-9.213872e-05 2.017869e-07 -1.884036e-05
0.000000e+00 -9.783583e-06 -1.414938e-05
0.000000e+00 -1.082378e-05 -1.634867e-05
-6.605527e-05 2.545683e-04 1.664982e-05
-8.748584e-05 -4.790347e-05 -1.235288e-05
-9.496352e-05 -5.455676e-05 -1.457197e-05
-5.362447e-05 -5.466789e-06 1.018678e-06
-9.465376e-05 -5.996820e-05 -4.500751e-05
-1.162950e-04 -7.736583e-05 -3.752211e-05
-1.202960e-04 -2.725557e-04 -6.454919e-05
-1.262553e-04 -3.019012e-04 -8.561616e-05
-1.201898e-04 -4.918514e-04 -1.655015e-04
-1.278388e-04 -3.331289e-04 -1.250878e-04
-1.188371e-04 -1.619188e-04 -3.342254e-05
-9.835885e-05 -2.230115e-04 -5.544468e-05
-1.458733e-04 -2.062014e-04 -4.425893e-05
-1.341181e-04 -4.448083e-04 -1.567773e-04
-9.408903e-05 -4.296302e-04 -1.597396e-04
-1.675249e-04 -3.837675e-04 -1.318081e-04
9.831369e-05 2.678243e-05 6.450958e-06
1.163716e-04 1.715221e-05 1.222600e-05
-1.373097e-04 -2.345335e-04 -1.750481e-04
-8.616133e-05 -8.368532e-05 -1.250082e-04
-1.822700e-04 -2.567003e-04 -1.992971e-04
-9.535100e-05 -1.070257e-04 -1.547770e-04
-1.195303e-04 -4.991694e-05 -1.249655e-04
4.097577e-07 5.046337e-05 -6.199620e-06
-2.936407e-06 5.500167e-05 -7.838557e-06
7.018241e-08 5.466217e-05 -6.515821e-06
1.286786e-04 -9.566777e-06 2.109245e-05
1.227407e-04 -1.464642e-05 2.096462e-05
1.450214e-04 -5.217972e-06 2.532683e-05
1.319265e-04 -5.555550e-06 2.197397e-05
1.176026e-04 -1.163857e-05 1.800970e-05
1.191209e-04 -1.153826e-05 1.825631e-05
1.405921e-04 -3.031227e-06 2.196869e-05
1.213254e-04 -1.362294e-05 2.077006e-05
1.046558e-04 -1.844440e-05 1.710477e-05
1.141128e-04 -1.613128e-05 1.852493e-05
2.725024e-06 4.660656e-05 -4.887086e-06
0.000000e+00 4.083947e-05 -3.824383e-06
0.000000e+00 4.631183e-05 -5.256907e-06
6.966153e-05 4.085015e-05 4.272159e-06
6.076014e-05 4.625531e-05 3.468056e-06
6.071620e-05 4.273468e-05 3.002867e-06
7.041286e-05 3.031514e-05 4.932935e-06
1.348965e-05 -5.911373e-05 2.134996e-06
1.796261e-05 -5.535182e-05 3.407506e-06
6.281686e-06 -5.977540e-05 4.216241e-07
1.847417e-05 -5.547053e-05 2.592618e-06
7.647697e-06 -5.956538e-05 5.989770e-07
2.310343e-05 -5.582146e-05 3.653257e-06
2.929109e-05 -5.114896e-05 5.951878e-06
1.876933e-05 -5.950957e-05 3.026201e-06
1.811932e-05 -5.881589e-05 3.780039e-06
-3.668214e-05 2.922853e-05 -8.360240e-05
0.000000e+00 4.966986e-05 -7.281418e-05
-4.479990e-05 1.627650e-05 -7.142053e-05
-3.278273e-05 3.011566e-05 -9.675447e-05
0.000000e+00 2.984055e-05 -5.918051e-05
-7.762284e-05 -2.633085e-05 -9.880962e-05
-6.111957e-05 1.452921e-05 -7.069719e-05
0.000000e+00 5.422706e-05 -6.997678e-05
-4.755946e-05 5.539941e-05 -9.433452e-05
-7.786388e-05 2.854775e-04 1.843186e-05
-8.524002e-05 2.870798e-04 5.458542e-06
-6.426790e-05 2.522074e-04 3.347202e-05
-1.005924e-04 3.449533e-04 4.886678e-06
3.284937e-04 6.283354e-05 1.093720e-04
1.844429e-04 1.460129e-05 1.612042e-05
2.467192e-04 1.238531e-04 2.745499e-05