# vtk DataFile Version 2.0
Simplicial Mesh Example
ASCII
DATASET UNSTRUCTURED_GRID
POINTS 5747 double
3.320296e+05 -1.479713e+05 -5.000000e+04
3.231117e+05 -1.694976e+05 -2.432604e+04
3.474531e+05 -1.606001e+05 -2.508933e+04
3.227386e+05 -1.447634e+05 -2.425528e+04
3.000000e+05 -1.659466e+05 0.000000e+00
3.323841e+05 -1.500853e+05 0.000000e+00
3.000000e+05 -1.298234e+05 -5.000000e+04
3.211980e+05 -1.225368e+05 -2.426738e+04
3.000000e+05 -1.488492e+05 -2.774542e+04
3.000000e+05 -1.638587e+05 -5.000000e+04
-3.410447e+05 -3.313729e+05 -5.000000e+04
-3.562308e+05 -3.573304e+05 -2.601066e+04
-3.400641e+05 -3.171355e+05 -2.518245e+04
-3.709216e+05 -3.294213e+05 -2.455579e+04
8.320003e+04 -3.000000e+05 -2.235380e+04
1.000000e+05 -3.000000e+05 0.000000e+00
8.376766e+04 -3.323560e+05 0.000000e+00
1.021017e+05 -3.230139e+05 -2.393989e+04
9.189646e+04 -3.476152e+05 -2.483836e+04
7.389417e+04 -3.240317e+05 -2.539793e+04
8.376391e+04 -3.320935e+05 -5.000000e+04
1.000000e+05 -3.000000e+05 -5.000000e+04
6.666667e+04 -3.000000e+05 -5.000000e+04
4.944468e+04 -3.212857e+05 -2.165974e+04
-3.000000e+05 -2.284991e+05 -5.000000e+04
-3.319474e+05 -2.124896e+05 -5.000000e+04
-3.213498e+05 -2.362895e+05 -2.757616e+04
-3.182279e+05 -2.138175e+05 -3.187491e+04
3.680760e+05 -6.909438e+04 0.000000e+00
3.760615e+05 -8.538341e+04 -2.424849e+04
3.481927e+05 -6.095077e+04 -2.496244e+04
3.758237e+05 -5.045542e+04 -2.419632e+04
-3.000000e+05 -2.326501e+05 0.000000e+00
-3.000000e+05 -2.125115e+05 -2.265069e+04
-3.000000e+05 -1.989752e+05 0.000000e+00
-3.222890e+05 -1.925429e+05 -2.782913e+04
-3.324295e+05 -2.170264e+05 0.000000e+00
-2.490803e+05 -3.000000e+05 -2.221961e+04
-2.515393e+05 -3.324613e+05 0.000000e+00
-2.666667e+05 -3.000000e+05 0.000000e+00
-2.736161e+05 -3.250545e+05 -2.495123e+04
3.676956e+05 -6.866168e+04 -5.000000e+04
4.000000e+05 -8.695652e+04 -5.000000e+04
4.000000e+05 -5.217391e+04 -5.000000e+04
4.000000e+05 -6.957979e+04 -2.232138e+04
-2.333333e+05 -3.000000e+05 -5.000000e+04
-2.666667e+05 -3.000000e+05 -5.000000e+04
-2.512538e+05 -3.321783e+05 -5.000000e+04
-2.508099e+05 -3.235453e+05 -2.887646e+04
-2.289455e+05 -3.238420e+05 -2.574418e+04
-2.333712e+05 -3.500457e+05 -2.527316e+04
-1.499969e+05 -3.000000e+05 -2.764283e+04
-1.666667e+05 -3.000000e+05 0.000000e+00
-1.707207e+05 -3.230060e+05 -2.516231e+04
-1.484539e+05 -3.229549e+05 -2.532466e+04
-1.507909e+05 -3.323848e+05 0.000000e+00
-1.623180e+05 -3.500580e+05 -2.480559e+04
-1.507405e+05 -3.321164e+05 -5.000000e+04
-1.195254e+05 -3.221356e+05 -2.186727e+04
-1.333333e+05 -3.000000e+05 -5.000000e+04
-1.666667e+05 -3.000000e+05 -5.000000e+04
-1.043477e+05 4.000000e+05 -2.232281e+04
-1.038755e+05 3.680862e+05 0.000000e+00
-1.217391e+05 4.000000e+05 0.000000e+00
-1.225518e+05 3.786565e+05 -2.424433e+04
-1.217391e+05 4.000000e+05 -5.000000e+04
-9.213417e+04 3.778403e+05 -2.651563e+04
-6.923876e+04 -3.678233e+05 -5.000000e+04
-8.695652e+04 -4.000000e+05 -5.000000e+04
-5.217391e+04 -4.000000e+05 -5.000000e+04
-6.956714e+04 -4.000000e+05 -2.232106e+04
-1.249685e+05 3.520706e+05 -2.482839e+04
-1.038072e+05 3.678091e+05 -5.000000e+04
-1.739130e+04 -4.000000e+05 -5.000000e+04
-3.460350e+04 -3.678269e+05 -5.000000e+04
-3.478387e+04 -4.000000e+05 -2.232106e+04
-1.636761e+04 -3.752737e+05 -2.444865e+04
-8.376345e+04 3.320934e+05 -5.000000e+04
-1.000000e+05 3.000000e+05 -5.000000e+04
-8.343627e+04 3.000000e+05 -2.764981e+04
-1.023685e+05 3.239702e+05 -2.442960e+04
-6.666667e+04 3.000000e+05 -5.000000e+04
-5.137625e+04 3.218639e+05 -2.279542e+04
4.000000e+05 3.304348e+05 -5.000000e+04
4.000000e+05 3.130499e+05 -2.232112e+04
4.000000e+05 3.478935e+05 -2.235349e+04
3.672790e+05 3.296172e+05 -2.474204e+04
-6.047286e+04 3.474481e+05 -2.417549e+04
-7.724413e+04 3.236644e+05 -1.839304e+04
-8.379954e+04 3.323534e+05 0.000000e+00
-9.034627e+04 3.505377e+05 -2.472678e+04
3.000000e+05 -8.185378e+04 -2.769067e+04
3.000000e+05 -6.540655e+04 0.000000e+00
3.219928e+05 -9.278579e+04 -2.350525e+04
3.213251e+05 -6.350280e+04 -2.571256e+04
3.320030e+05 -7.972620e+04 -5.000000e+04
3.000000e+05 -4.823862e+04 -2.768751e+04
3.000000e+05 -6.175270e+04 -5.000000e+04
3.319980e+05 -4.560520e+04 -5.000000e+04
1.000000e+05 3.000000e+05 0.000000e+00
1.285492e+05 3.222096e+05 -2.333515e+04
1.166485e+05 3.000000e+05 -2.764255e+04
9.914085e+04 3.215417e+05 -2.557715e+04
1.172876e+05 3.321041e+05 -5.000000e+04
1.000000e+05 3.000000e+05 -5.000000e+04
1.172617e+05 3.323725e+05 0.000000e+00
1.739130e+04 -4.000000e+05 -5.000000e+04
3.478141e+04 -4.000000e+05 -2.232106e+04
3.460470e+04 -3.678270e+05 -5.000000e+04
1.641570e+04 -3.754506e+05 -2.427397e+04
9.664453e+04 3.481306e+05 -2.480840e+04
3.680819e+05 1.387484e+05 0.000000e+00
3.785149e+05 1.273940e+05 -2.666552e+04
3.525231e+05 1.597326e+05 -2.515442e+04
3.789806e+05 1.574581e+05 -2.426681e+04
4.000000e+05 1.565217e+05 0.000000e+00
4.000000e+05 1.391303e+05 -2.231930e+04
6.857177e+00 3.678309e+05 -5.000000e+04
1.673721e+04 3.320840e+05 -5.000000e+04
3.460423e+04 3.678269e+05 -5.000000e+04
2.844178e+04 3.508410e+05 -2.472162e+04
-3.461370e+04 -3.681008e+05 0.000000e+00
-1.739130e+04 -4.000000e+05 0.000000e+00
-1.676283e+04 3.320851e+05 -5.000000e+04
1.378112e+03 3.362478e+05 -2.510890e+04
3.679848e+05 1.390962e+05 -5.000000e+04
-4.999978e+04 -3.000000e+05 -2.235748e+04
-1.678469e+04 -3.000000e+05 -2.764887e+04
-1.676668e+04 -3.323444e+05 0.000000e+00
-5.479522e+04 -3.231600e+05 -2.798751e+04
4.000000e+05 1.565217e+05 -5.000000e+04
3.676239e+05 -2.421373e+05 -5.000000e+04
4.000000e+05 -2.434785e+05 -2.767896e+04
3.747721e+05 -2.281712e+05 -2.555946e+04
3.781731e+05 -2.607592e+05 -2.587663e+04
-3.128530e+05 -3.661813e+05 -5.000000e+04
-2.847026e+05 -3.321560e+05 -5.000000e+04
-3.161470e+05 -3.277621e+05 -5.000000e+04
-3.118625e+05 -3.403622e+05 -2.486951e+04
3.509470e+05 -2.651753e+05 -2.498209e+04
3.679951e+05 -2.423193e+05 0.000000e+00
4.000000e+05 -2.608696e+05 0.000000e+00
-1.455192e-10 3.000000e+05 -5.000000e+04
-1.665884e+04 3.000000e+05 -2.764283e+04
1.678621e+04 3.000000e+05 -2.764891e+04
3.000000e+05 -2.490234e+05 -2.248769e+04
3.324577e+05 -2.511100e+05 0.000000e+00
3.233427e+05 -2.639090e+05 -2.386118e+04
3.213235e+05 -2.322625e+05 -2.427257e+04
3.320637e+05 -2.503757e+05 -5.000000e+04
3.463445e+05 -2.305992e+05 -2.486406e+04
-3.698054e+05 -3.472763e+05 0.000000e+00
-3.663396e+05 -3.129808e+05 0.000000e+00
-3.315797e+05 -3.410949e+05 0.000000e+00
3.000000e+05 -2.319293e+05 -5.000000e+04
1.730839e+05 3.678997e+05 -5.000000e+04
1.571960e+05 3.749995e+05 -2.566968e+04
1.944750e+05 3.532359e+05 -2.496627e+04
1.915336e+05 3.784005e+05 -2.606486e+04
1.913043e+05 4.000000e+05 -5.000000e+04
1.739026e+05 4.000000e+05 -2.767885e+04
3.704421e+05 3.503181e+05 -5.000000e+04
-3.674293e+05 -2.066073e+05 -5.000000e+04
-3.492083e+05 -2.290965e+05 -2.538588e+04
-3.495470e+05 -1.977513e+05 -2.540621e+04
1.731007e+05 3.680556e+05 0.000000e+00
1.913043e+05 4.000000e+05 0.000000e+00
4.000000e+05 2.956522e+05 0.000000e+00
4.000000e+05 2.782599e+05 -2.232106e+04
3.699311e+05 2.951557e+05 -2.461389e+04
-2.177434e+05 -3.321524e+05 -5.000000e+04
-2.166738e+05 -3.000000e+05 -2.767207e+04
-2.000187e+05 -3.211973e+05 -2.674237e+04
-1.983970e+05 -3.480803e+05 -2.513770e+04
-2.179099e+05 -3.324288e+05 0.000000e+00
-2.000000e+05 -3.000000e+05 0.000000e+00
-4.000000e+05 -1.739130e+04 -5.000000e+04
-4.000000e+05 1.362271e+00 -2.232106e+04
-4.000000e+05 -3.478139e+04 -2.232106e+04
-3.765178e+05 -1.619438e+04 -2.422406e+04
-1.172644e+05 3.321057e+05 -5.000000e+04
-1.165333e+05 3.000000e+05 -2.235380e+04
-1.172626e+05 3.323723e+05 0.000000e+00
-1.350440e+05 3.242838e+05 -2.422565e+04
-1.000000e+05 3.000000e+05 0.000000e+00
3.000000e+05 -1.154172e+05 -2.769106e+04
3.000000e+05 -9.891990e+04 0.000000e+00
3.323674e+05 -1.164140e+05 0.000000e+00
3.494097e+05 -9.677091e+04 -2.469271e+04
3.320115e+05 -1.138445e+05 -5.000000e+04
3.000000e+05 -9.578803e+04 -5.000000e+04
-3.683842e+05 -3.117444e+05 -5.000000e+04
-3.704229e+05 -3.502942e+05 -5.000000e+04
-3.000000e+05 -1.676695e+04 -5.000000e+04
-3.000000e+05 -3.162526e+04 0.000000e+00
-3.000000e+05 1.537267e+03 0.000000e+00
-3.225488e+05 -1.458354e+04 -2.331887e+04
-2.625540e+05 -3.498971e+05 -2.512137e+04
-3.324526e+05 -2.845988e+05 0.000000e+00
-3.280582e+05 -3.160567e+05 0.000000e+00
-2.333333e+05 -3.000000e+05 0.000000e+00
-1.731007e+05 -3.680556e+05 0.000000e+00
-1.546296e+05 -3.758014e+05 -2.505216e+04
-1.738957e+05 -4.000000e+05 -2.758994e+04
-1.891587e+05 -3.758626e+05 -2.496961e+04
-2.077253e+05 -3.680332e+05 0.000000e+00
-2.239576e+05 -3.758730e+05 -2.504417e+04
-1.913043e+05 -4.000000e+05 -5.000000e+04
-2.086560e+05 -4.000000e+05 -2.240978e+04
-1.730589e+05 -3.677722e+05 -5.000000e+04
6.957979e+04 4.000000e+05 -2.232138e+04
5.217391e+04 4.000000e+05 0.000000e+00
3.478536e+04 4.000000e+05 -2.232108e+04
5.076412e+04 3.763602e+05 -2.419392e+04
5.217391e+04 4.000000e+05 -5.000000e+04
1.674987e+04 3.323474e+05 0.000000e+00
3.522601e+04 3.242376e+05 -2.441795e+04
3.461320e+04 3.681000e+05 0.000000e+00
4.999984e+04 3.000000e+05 -2.235747e+04
3.333333e+04 3.000000e+05 0.000000e+00
1.635001e+04 3.759242e+05 -2.428818e+04
-3.680268e+05 2.424010e+05 0.000000e+00
-3.502043e+05 2.289782e+05 -2.514523e+04
-3.680500e+05 2.077851e+05 0.000000e+00
-3.762988e+05 2.231425e+05 -2.580358e+04
6.042780e+04 3.499876e+05 -2.481666e+04
-1.731195e+05 3.680519e+05 0.000000e+00
-1.546044e+05 3.764508e+05 -2.417358e+04
-1.611291e+05 3.501230e+05 -2.473775e+04
-1.910926e+05 3.750896e+05 -2.428174e+04
-1.384382e+05 3.677954e+05 -5.000000e+04
-4.000000e+05 2.260870e+05 0.000000e+00
-4.000000e+05 2.086964e+05 -2.767894e+04
-1.565217e+05 4.000000e+05 -5.000000e+04
-1.391303e+05 4.000000e+05 -2.231930e+04
-1.739120e+05 4.000000e+05 -2.232105e+04
-2.883046e+05 -3.320639e+05 0.000000e+00
-3.323717e+05 -1.156481e+05 0.000000e+00
-3.485545e+05 -1.011074e+05 -2.467716e+04
-3.242629e+05 -9.130955e+04 -2.346029e+04
-3.283241e+05 -1.238851e+05 -2.581831e+04
[...]
CELL_DATA 16430
SCALARS total_strain double 6
LOOKUP_TABLE default
1.091795e-08 1.509315e-09 -2.158348e-09 -5.189387e-09 2.546959e-09 -8.831022e-10
5.765202e-09 3.106956e-09 -2.959084e-09 -2.138395e-09 2.025911e-09 -1.279356e-10
-2.163102e-10 6.657013e-09 -3.355362e-09 -1.468342e-09 2.266641e-09 -2.344347e-09
2.209251e-09 5.590373e-09 -3.402455e-09 -5.587609e-09 9.870278e-10 -1.993617e-09
3.786313e-10 6.687307e-09 -3.206505e-09 -2.244538e-09 3.008043e-09 -2.707544e-09
-3.940980e-09 -1.807974e-09 1.661933e-10 1.447212e-09 -9.777932e-10 3.605538e-10
-3.615267e-09 -2.474164e-09 1.190694e-09 7.406000e-10 -4.710841e-10 -1.427356e-10
-3.439105e-09 -3.553003e-09 7.773293e-10 1.186039e-09 -1.153697e-09 5.738809e-11
-4.718424e-09 -4.149601e-10 5.768550e-10 1.069018e-09 2.930560e-10 -9.077122e-11
-4.495433e-09 -2.105982e-12 4.966485e-10 3.008130e-10 -4.853717e-10 -8.879120e-12
-3.554429e-09 -2.288020e-09 9.553887e-10 6.110392e-10 -2.946472e-10 -1.568645e-10
-4.623437e-09 -3.381544e-10 6.955010e-10 5.377859e-10 -5.439890e-10 -5.796352e-11
1.733082e-08 -2.208415e-10 -3.023374e-09 -3.992369e-09 9.276647e-10 -6.180653e-10
9.704466e-09 3.865405e-09 -3.508656e-09 -6.557398e-09 -1.796831e-10 2.513708e-10
1.133031e-08 1.472486e-09 -2.713865e-09 -5.239224e-09 2.690073e-09 -6.721988e-10
1.044700e-08 -7.143992e-10 -2.314484e-09 -9.091062e-11 1.516670e-09 5.416108e-10
1.093470e-08 2.205346e-09 -2.859296e-09 -1.952577e-09 9.753274e-10 1.435366e-09
1.036988e-08 2.781988e-10 -2.991469e-09 8.330758e-11 1.664814e-09 2.808243e-10
-6.701101e-09 7.552199e-09 -3.191928e-09 2.548177e-09 3.743692e-09 -2.029109e-09
-9.357785e-09 9.073198e-09 -2.797496e-09 2.977980e-09 2.963719e-09 -2.125452e-09
-5.288349e-09 6.419004e-09 -2.048324e-09 9.564958e-10 1.694299e-09 -3.430411e-10
-8.268683e-09 5.587320e-09 -5.898655e-10 2.318744e-09 2.630004e-09 -8.091131e-10
-8.649778e-09 7.624053e-09 -2.055310e-09 2.976750e-09 3.317159e-09 -1.359314e-09
-9.156139e-09 7.093573e-09 -2.154181e-09 4.884313e-09 3.408668e-09 -1.624218e-09
5.503205e-09 -2.555173e-09 -7.118532e-10 -1.445528e-09 -1.939670e-10 -3.862450e-10
-3.589237e-09 2.612243e-09 4.281886e-10 -3.087628e-10 -1.282840e-11 -4.877432e-11
-3.696861e-09 2.533140e-09 3.834524e-10 -4.872009e-10 -7.544609e-11 -1.522781e-10
-3.424953e-09 2.587040e-09 3.128005e-10 -5.649672e-10 -8.805734e-11 -1.723289e-10
-3.744927e-09 2.685624e-09 3.576122e-10 -4.111709e-10 -5.667555e-11 -2.158117e-10
-3.616802e-09 2.549417e-09 4.028911e-10 -6.152248e-10 -9.648238e-11 9.791112e-11
-3.768960e-09 2.551290e-09 4.068177e-10 -7.399186e-10 -9.374584e-11 -1.083245e-10
-2.221491e-09 1.422321e-09 3.146736e-10 3.216449e-10 7.153167e-11 -2.351928e-10
-2.712342e-09 1.514433e-09 2.887401e-10 3.255687e-10 6.158452e-11 -4.518030e-11
-2.247932e-09 1.316666e-09 1.910316e-10 1.978747e-10 3.933239e-12 -1.108669e-11
2.053714e-08 -1.032994e-08 -3.417885e-08 -6.780566e-09 1.474996e-08 3.775090e-09
-8.315393e-11 -1.291954e-08 3.698959e-09 1.674758e-09 7.176523e-13 -1.377352e-10
1.545075e-10 -1.230550e-08 3.739971e-09 6.250107e-10 -3.248493e-10 1.970599e-10
-1.676721e-10 -1.344436e-08 3.890043e-09 1.025162e-09 -1.077611e-10 1.199409e-10
8.436807e-10 -1.360282e-08 3.882529e-09 6.713574e-10 -1.458791e-10 8.944356e-11
5.630675e-09 -3.005176e-09 -7.742371e-10 -1.184522e-10 -2.648581e-11 3.006440e-11
5.391749e-09 -3.009630e-09 -7.737277e-10 6.633231e-12 -7.927653e-12 2.238165e-11
8.888781e-09 -1.995261e-08 -3.824572e-09 -4.743334e-09 1.516855e-09 6.029043e-11
5.495622e-09 -2.940040e-09 -7.513603e-10 1.739170e-10 2.886082e-11 -1.726064e-12
5.364247e-09 -2.961462e-09 -7.452154e-10 1.661236e-11 3.220700e-11 3.868622e-11
5.441741e-09 -3.033793e-09 -7.681393e-10 -6.627809e-12 -4.823405e-12 2.011280e-11
-9.142499e-09 4.158760e-09 -5.144019e-10 -1.008504e-09 2.224749e-10 -1.540736e-10
3.919432e-09 -2.095367e-09 -6.389130e-10 -7.232597e-10 -6.996337e-11 -3.805456e-11
3.786180e-09 -1.755299e-09 -5.368275e-10 -8.506980e-10 -1.222867e-10 -9.883583e-11
3.469967e-09 -1.784830e-09 -5.795573e-10 -1.037102e-09 -1.773868e-10 2.923163e-10
3.964345e-09 -1.780778e-09 -6.161380e-10 -8.911711e-10 -2.582032e-10 8.094259e-11
3.850626e-09 -2.129121e-09 -6.837682e-10 -7.598797e-10 -1.570249e-10 -7.109308e-11
4.849324e-09 -1.595460e-08 3.120271e-09 -1.969584e-09 -7.182049e-10 -2.376593e-10
4.812783e-09 -1.646697e-08 3.144110e-09 -1.761079e-09 8.926349e-11 -3.560229e-10
3.337187e-09 -1.425136e-08 3.126037e-09 -2.420758e-09 -1.860992e-10 -4.141356e-10
4.810323e-09 -1.637263e-08 3.306491e-09 -1.737637e-09 2.782292e-10 -2.667483e-10
3.263416e-09 -1.287266e-08 2.724475e-09 -2.142651e-09 4.442022e-10 -3.511067e-10
3.418775e-09 -1.517830e-08 3.032872e-09 -2.576831e-09 -1.223588e-10 -1.320070e-10
3.598443e-09 -1.441602e-08 3.159780e-09 -1.336355e-09 -6.475508e-11 -6.490664e-10
1.013148e-08 -1.631540e-08 -6.868753e-09 -5.258360e-09 -3.626007e-09 -2.756984e-10
8.405622e-09 -1.881103e-08 -3.641793e-09 -2.631140e-09 -1.577783e-09 -3.480108e-10
6.449499e-09 -1.614483e-08 -4.830595e-09 -3.523698e-09 8.513457e-11 -2.538214e-10
8.409877e-09 -1.968434e-08 -2.525210e-09 -4.688382e-09 -2.895228e-09 -1.571766e-09
6.888611e-09 -1.707332e-08 -2.975528e-09 -2.905063e-09 -2.536755e-09 -1.571645e-10
6.535662e-09 -1.721139e-08 -3.916838e-09 -3.701357e-09 -1.857750e-09 -1.052517e-09
-3.463615e-09 -2.698569e-09 5.831244e-10 4.964649e-10 -1.519602e-10 -8.243139e-11
-3.356719e-09 -2.612433e-09 6.175989e-10 6.274506e-10 -3.181417e-10 -1.726338e-10
-3.657654e-09 -2.495361e-09 8.719487e-10 -2.731257e-10 2.243024e-10 2.351674e-11
3.031746e-08 -1.188417e-08 -3.896781e-10 -2.244121e-11 1.300929e-10 3.800487e-09
-4.190077e-09 -4.074066e-09 1.452173e-09 -4.225335e-09 -1.984876e-09 -8.212555e-10
-5.385738e-09 -1.488939e-09 3.912342e-10 -3.701707e-09 -1.279667e-09 -4.175282e-10
-7.134315e-09 -2.858753e-09 5.035430e-10 -2.198129e-09 -1.216353e-09 -1.609091e-10
-6.671417e-09 -2.115945e-10 1.181074e-09 -2.607908e-09 -1.147911e-09 -7.872143e-10
-6.743820e-09 -1.435619e-09 5.900516e-10 -3.229340e-09 -1.446969e-09 -5.551826e-10
1.488213e-08 4.378303e-08 -8.213293e-08 2.040288e-09 1.740908e-08 -7.539639e-10
-6.127978e-09 -4.304740e-09 1.430534e-09 -3.108094e-09 -2.065027e-09 -2.861835e-10
-4.674773e-09 -4.659029e-10 1.001300e-09 -1.926099e-10 -6.349852e-10 -1.234810e-10
-9.638500e-09 7.493317e-09 -2.107702e-09 4.919678e-09 3.255682e-09 -1.561203e-09
-7.901674e-09 7.589133e-09 -2.057003e-09 4.137781e-09 3.326269e-09 -2.059501e-09
-8.164910e-09 2.526750e-09 -1.407944e-09 6.949135e-09 8.661865e-10 -4.776456e-10
-8.996614e-09 7.730556e-09 -2.397326e-09 4.876729e-09 1.765134e-09 -8.841827e-10
-1.020857e-08 6.258034e-09 -2.858612e-09 6.319907e-09 2.512472e-09 -1.572715e-09
-8.547599e-09 6.241722e-09 -2.883611e-09 7.171941e-09 2.473675e-09 -1.308555e-09
-7.893199e-09 6.508770e-09 -2.759970e-09 6.309459e-09 2.798975e-09 -1.596947e-09
8.831449e-09 -2.356210e-08 -1.568467e-09 -5.735873e-09 -8.009441e-09 -1.869165e-09
7.310871e-09 -2.478195e-08 5.462377e-10 -7.098655e-09 -7.563091e-09 -1.436056e-09
6.313652e-09 -1.782838e-08 -7.087064e-11 -9.438992e-09 -7.400546e-09 -2.543501e-09
3.577447e-09 -1.730009e-08 3.041103e-10 -7.281191e-09 -6.928640e-09 -1.349313e-09
7.867203e-09 -1.815297e-08 -1.296292e-09 -9.361833e-09 -6.759921e-09 -2.943206e-09
6.079072e-09 -2.453333e-08 -1.320614e-09 -1.070423e-08 -1.129781e-08 -3.344027e-09
7.709097e-09 -2.148987e-08 3.050767e-09 1.085225e-10 9.981656e-10 -4.993944e-11
5.739622e-09 -3.289365e-09 -8.252536e-10 3.003735e-10 7.515288e-11 -3.600431e-11
6.210517e-09 -3.289365e-09 -8.546281e-10 2.977324e-10 7.208131e-11 2.251799e-10
5.689265e-09 -3.214015e-09 -7.516907e-10 -2.203131e-10 -2.356468e-11 7.780465e-11
5.921423e-09 -3.247844e-09 -7.507619e-10 -1.907537e-10 -2.155100e-11 9.249085e-11
6.031449e-09 -3.168819e-09 -7.642157e-10 -5.751200e-10 -6.164852e-11 4.365730e-11
5.912747e-09 -3.339832e-09 -8.327334e-10 -1.618496e-10 6.544092e-11 6.481066e-11
5.734264e-09 -3.277586e-09 -7.812662e-10 -5.013422e-10 -4.530054e-11 1.948743e-10
-3.407458e-09 1.218820e-09 7.984919e-10 5.201179e-10 1.708884e-10 1.456955e-10
-5.407578e-09 6.990943e-09 -2.865868e-09 -2.414792e-09 -5.382907e-09 -4.101921e-09
-8.015789e-09 8.907283e-09 -2.511559e-09 -3.202579e-09 -4.540897e-09 -4.662316e-09
-8.112545e-09 1.053228e-08 -4.903422e-09 -2.751527e-09 -5.620642e-09 -5.792757e-09
-2.410397e-09 2.263018e-09 1.512293e-10 -5.470744e-10 -1.476108e-10 -6.552647e-11
-2.432657e-09 2.263404e-09 1.679954e-10 -5.500258e-10 -9.307821e-11 1.045437e-10
-2.409980e-09 2.173532e-09 1.215459e-10 -5.482486e-10 -9.053513e-11 -6.648593e-11
-2.425596e-09 2.155100e-09 9.328094e-11 -8.280537e-10 -1.908055e-10 -4.780065e-11
-1.852651e-09 1.899135e-09 2.022138e-11 -7.235686e-10 -5.878964e-11 9.731491e-11
-2.417721e-09 1.987077e-09 1.220246e-10 -7.712204e-10 -9.601359e-11 -8.590340e-11
-1.978698e-09 1.915430e-09 -2.431855e-11 -6.690817e-10 -1.073039e-10 1.764455e-10
-2.418471e-09 1.898515e-09 -8.026024e-12 -7.617658e-10 -2.034346e-10 -7.468737e-11
-7.936838e-09 5.833181e-09 -1.778354e-09 2.746418e-09 2.079697e-09 -7.531529e-10
1.843759e-08 3.167544e-08 -8.068592e-08 5.759456e-09 4.014939e-08 -4.471264e-09
7.050355e-09 -2.017617e-08 3.490030e-09 2.336517e-10 1.016464e-10 -1.849809e-11
6.605203e-09 -1.885774e-08 3.654745e-09 -4.640230e-10 1.711027e-10 -1.348341e-10
6.732468e-09 -1.943319e-08 3.431448e-09 -2.965574e-10 -1.641141e-10 -1.112348e-10
6.770358e-09 -1.962999e-08 3.437205e-09 -4.603300e-10 -5.736433e-11 -1.277007e-10
-3.689471e-09 1.286483e-09 9.026806e-10 5.592974e-10 -2.042078e-10 -2.219913e-10
6.670673e-09 -2.024322e-08 3.652097e-09 -4.574783e-10 1.058433e-10 -1.292425e-10
6.926118e-09 -2.015112e-08 3.657012e-09 1.450763e-10 1.759877e-10 -1.281548e-10
-8.456846e-09 3.643581e-09 4.686203e-10 3.268887e-09 1.349179e-09 -6.243875e-10
-9.352837e-09 7.077968e-09 -8.536409e-10 5.382833e-09 2.752294e-09 -1.979499e-09
-9.135540e-09 3.319054e-09 -7.999732e-10 5.662232e-09 2.368244e-09 -5.809988e-10
-9.535549e-09 6.481591e-09 -2.133039e-09 5.296346e-09 4.179548e-09 -2.351255e-09
-8.068924e-09 5.519701e-09 -1.380277e-09 2.515468e-09 2.184158e-09 -6.329518e-10
-7.913876e-09 2.419931e-11 9.704957e-10 -1.061323e-09 -6.715304e-10 -1.728517e-10
2.331781e-08 -6.214823e-09 -4.194076e-08 -1.287520e-09 1.911385e-08 1.575033e-09
-6.999390e-09 -4.949907e-10 7.642598e-10 -1.035353e-09 -1.464511e-09 -3.834364e-10
2.964979e-10 -1.395725e-08 2.750247e-09 4.262284e-09 9.139935e-10 3.230465e-10
-8.594242e-09 2.292140e-10 1.637009e-09 -1.024436e-09 -3.090403e-10 -3.238653e-10
-8.363406e-09 4.042278e-11 1.552481e-09 -3.915828e-10 -8.848766e-11 -4.250327e-10
7.484324e-10 -1.175569e-08 1.027564e-09 2.214856e-09 -1.343206e-09 1.062233e-10
6.225975e-10 -1.117275e-08 2.535914e-09 1.492604e-09 -1.268196e-09 -1.469787e-10
-3.687758e-09 1.561649e-09 8.049446e-10 6.911626e-10 2.056560e-10 -2.549114e-10
1.701162e-09 -1.348493e-08 2.796833e-09 3.979572e-09 -9.989263e-10 3.163630e-10
2.305219e-09 -1.288047e-08 1.475969e-09 3.785319e-10 -1.626882e-10 2.419439e-10
1.616102e-09 -1.325301e-08 4.800658e-10 4.148260e-09 -2.332270e-09 7.866494e-10
-6.714269e-09 8.195233e-09 -1.663905e-09 3.280808e-10 2.141026e-09 -1.074449e-09
-8.466880e-09 6.290390e-09 -3.303582e-10 4.144497e-09 2.861105e-09 -1.317729e-09
-8.139879e-09 6.302607e-09 -5.937473e-13 2.250715e-09 1.834169e-09 -9.248615e-10
-8.545415e-09 5.341304e-09 3.937402e-10 4.423576e-09 2.617818e-09 -1.062793e-09
-3.018361e-09 7.483028e-09 -1.409605e-09 -6.753950e-10 1.663801e-09 -7.992162e-10
-8.112438e-09 7.703104e-09 -4.939700e-10 2.183253e-09 2.607240e-09 -1.790231e-09
-5.010051e-09 8.996086e-09 -2.674397e-09 -1.957506e-09 2.839552e-09 -1.619531e-09
-8.146705e-09 7.702373e-09 -1.668300e-09 2.198107e-09 2.577600e-09 -1.102804e-09
-4.581144e-09 1.005164e-08 -3.618660e-09 -3.447675e-10 3.376859e-09 -2.372870e-09
-5.675920e-09 8.234893e-09 -2.314695e-09 1.277429e-10 2.276241e-09 -9.743969e-10
4.829754e-10 7.609749e-09 -2.987325e-09 -3.175969e-09 1.427791e-09 -5.548133e-10
-8.628174e-09 2.103417e-09 1.094655e-09 5.337971e-09 2.959757e-09 -8.890601e-10
-8.929590e-09 3.793998e-09 -4.969771e-10 3.558677e-09 2.474483e-09 -5.570411e-10
-8.885260e-09 5.701441e-09 -5.832446e-10 4.746425e-09 2.738226e-09 -6.849336e-10
-8.463012e-09 6.252229e-09 -6.067298e-10 2.012648e-09 2.322398e-09 -4.365037e-10
-7.142652e-09 7.358045e-09 -2.149693e-09 3.177468e-09 2.987827e-09 -2.102752e-09
-9.545607e-09 6.391943e-09 7.192853e-10 4.883390e-09 2.031402e-09 -1.273399e-09
-8.579708e-09 3.096079e-09 -1.015397e-10 5.182947e-09 3.063293e-09 -1.184118e-09
-9.129274e-09 2.242306e-09 1.084686e-09 5.820524e-09 2.334275e-09 -5.811203e-10
-3.568744e-09 2.740049e-09 3.126299e-10 -8.795542e-11 -2.105227e-11 -1.665246e-11
-3.337646e-09 2.666891e-09 2.111253e-10 -1.568279e-10 -2.940825e-11 2.090617e-11
-3.456583e-09 2.573407e-09 2.517129e-10 -3.276615e-10 -4.646505e-12 1.920553e-11
-3.365918e-09 2.653854e-09 2.454001e-10 -1.780149e-10 -3.033596e-11 -4.578338e-12
-3.383509e-09 2.695513e-09 2.850253e-10 -2.408045e-10 -1.995848e-11 -6.656675e-11
-3.953970e-09 6.349792e-10 1.193196e-09 -5.145366e-10 1.861653e-10 -4.739450e-11
-3.496130e-09 2.735258e-09 2.482654e-10 -5.350920e-11 4.610506e-12 -4.815187e-11
-2.186741e-09 1.286516e-09 2.441396e-10 8.962653e-11 1.067397e-10 8.690515e-11
-2.214767e-09 1.128558e-09 2.807328e-10 3.616072e-10 2.209455e-11 -5.532197e-11
-1.982153e-09 1.179796e-09 1.993907e-10 1.645245e-10 1.778434e-10 1.101061e-11
1.454674e-08 6.798165e-09 -4.579470e-08 -6.175610e-09 7.184499e-09 1.341964e-09
-1.882062e-09 1.189097e-09 1.970677e-10 2.393149e-10 1.795590e-10 -1.157474e-11
-1.930040e-09 1.317011e-09 1.865508e-10 2.181891e-10 1.912248e-12 -1.035338e-11
-2.136213e-09 1.312351e-09 2.369565e-10 1.136260e-10 2.476241e-11 -8.725864e-11
-4.065556e-09 -1.820968e-09 1.006017e-09 1.519012e-09 -7.503547e-10 5.955159e-11
-3.782363e-09 -2.841262e-09 1.187767e-09 2.623132e-09 -1.331504e-09 4.383995e-10
-3.821951e-09 -2.147194e-09 9.120189e-10 1.289541e-09 -2.130459e-09 2.098619e-10
4.724496e-09 -2.202164e-09 -7.121856e-10 -8.053183e-10 -1.324410e-10 9.312440e-11
4.440437e-09 -2.005657e-09 -6.279364e-10 -1.503777e-09 -1.234077e-10 1.805813e-10
3.706624e-09 -2.032876e-09 -6.296617e-10 -1.342131e-09 -6.911871e-11 1.341050e-11
4.764625e-09 -2.471837e-09 -7.054148e-10 -7.785703e-10 -1.369693e-11 1.316105e-10
5.901959e-09 -1.856515e-08 3.371160e-09 -1.168728e-09 -2.143880e-10 -1.063651e-10
5.814702e-09 -1.870541e-08 3.363343e-09 -8.389925e-10 3.480304e-10 -1.851630e-10
6.503381e-09 -1.860436e-08 3.510354e-09 -4.191716e-10 2.056599e-10 -2.563391e-10
5.817853e-09 -1.672287e-08 3.652303e-09 -9.219517e-10 -4.106057e-10 -1.527630e-10
6.481051e-09 -1.927727e-08 3.625306e-09 -3.350612e-10 -8.259159e-11 -1.849205e-10
5.918103e-09 -1.859797e-08 3.585180e-09 -2.879094e-11 1.074712e-10 -1.996344e-10
-3.923886e-09 1.813129e-09 6.174314e-10 2.256224e-10 1.252953e-11 -5.788398e-11
-4.016559e-09 1.882706e-09 6.813354e-10 9.285528e-11 -1.050116e-11 -2.927680e-11
-9.377274e-09 7.343125e-09 -2.291827e-09 -1.601085e-09 -2.904432e-09 -1.027665e-09
3.415548e-08 -4.373651e-09 2.245116e-09 1.502648e-08 4.216852e-09 8.957856e-09
-8.603413e-09 6.268347e-09 -2.502345e-09 -2.173685e-09 -2.535025e-09 -6.773357e-10
-3.953971e-09 -7.016610e-11 1.210088e-09 -7.540934e-10 -1.428089e-10 -2.769084e-10
-8.493539e-09 5.507635e-09 -3.464065e-09 -3.453406e-09 -3.894377e-09 -2.080925e-09
-8.317581e-09 3.437308e-09 -3.649440e-09 -3.559946e-09 -3.154200e-09 -1.922924e-09
5.915198e-09 -1.896855e-08 3.956259e-09 1.060556e-09 1.898575e-10 1.385714e-10
6.498319e-09 -2.016591e-08 3.752782e-09 1.426535e-09 3.841926e-11 6.199236e-11
5.069181e-09 -1.847667e-08 3.777456e-09 2.300144e-09 -3.051510e-10 1.957507e-10
2.152696e-08 -3.603372e-09 -4.924052e-10 4.500259e-09 -9.975219e-10 3.413767e-09
6.507749e-09 -1.937101e-08 3.643244e-09 1.333670e-09 4.718302e-10 3.350897e-11
-1.383481e-09 1.097163e-09 1.305205e-10 5.581809e-10 1.365645e-10 -1.502329e-11
-2.032536e-09 1.123085e-09 2.658600e-10 8.095058e-10 5.966971e-11 2.282030e-11
-4.515519e-09 7.454348e-10 1.006488e-09 -8.514443e-10 -7.434209e-11 7.446621e-11
-2.060269e-09 1.322391e-09 2.771068e-10 3.120078e-10 7.312795e-11 -1.024263e-10
-1.885843e-09 1.220787e-09 2.276797e-10 2.689702e-10 4.289759e-11 -6.726397e-12
-8.586246e-09 -6.176659e-10 1.052284e-09 4.476349e-09 2.187649e-09 -6.425896e-10
-8.019228e-09 3.446422e-09 -7.551550e-10 6.169794e-09 2.292580e-09 -8.716066e-10
-7.461506e-09 5.295249e-10 1.374738e-09 4.170146e-09 1.667907e-09 -1.841989e-10
-7.412985e-09 -2.547683e-09 1.680442e-09 4.235060e-09 2.493266e-10 -5.173523e-10
-7.840551e-09 -1.643581e-09 7.787189e-10 5.835767e-09 1.858058e-09 -4.269227e-10
-8.747648e-09 1.945633e-09 -3.083687e-10 3.761334e-09 1.941059e-09 -4.434163e-10
-8.517404e-09 1.196454e-09 -2.585758e-10 3.796380e-09 1.756313e-09 -2.860792e-10
-3.077912e-09 1.603344e-09 4.227427e-10 5.858465e-10 9.136492e-11 -1.022827e-10
-3.156327e-09 1.619187e-09 5.501213e-10 6.407577e-10 1.669020e-10 -9.057799e-11
-3.011223e-09 1.688373e-09 4.282321e-10 3.962950e-10 4.803302e-11 -8.258483e-11
-3.239462e-09 1.651570e-09 4.346781e-10 3.016459e-10 1.566014e-11 -1.428209e-10
-2.834074e-09 1.485489e-09 4.143712e-10 5.345354e-10 5.077694e-11 -4.161543e-11
-2.883974e-09 1.580685e-09 4.268732e-10 6.265550e-10 -7.893464e-12 -4.101555e-11
-3.331926e-09 1.759073e-09 4.316387e-10 5.054188e-10 4.495182e-11 -4.011074e-11
-3.331156e-09 1.730031e-09 4.307383e-10 2.845534e-10 3.881340e-11 -1.126020e-10
-3.262923e-09 -2.093056e-09 1.586848e-09 -3.411797e-10 -1.187728e-11 -3.909484e-10
-3.379218e-09 -1.800162e-09 1.624674e-09 -6.237741e-10 1.305914e-10 -4.397097e-10
-3.952484e-09 -3.764855e-10 1.285567e-09 -5.100577e-10 -1.389570e-10 -2.761043e-10
-3.799514e-09 -2.139009e-10 1.366112e-09 -3.620723e-10 -5.199235e-11 -2.198579e-10
-3.623867e-09 -1.222065e-10 1.329322e-09 -5.120091e-10 1.261659e-10 -3.480076e-10
-2.170039e-09 -8.059802e-09 3.251184e-09 4.024355e-09 2.140428e-10 3.069092e-10
-4.012731e-09 2.182697e-09 5.447056e-10 3.645839e-11 3.052891e-11 -1.398581e-11
-2.193016e-09 -7.685039e-09 3.164271e-09 3.951473e-09 3.571341e-10 3.515985e-10
-3.334844e-09 -8.590877e-09 3.206949e-09 2.693008e-09 1.623779e-10 8.255045e-11
-2.111944e-09 -9.059587e-09 3.361605e-09 2.745001e-09 -4.000598e-10 2.523365e-11
-2.452824e-09 -8.795057e-09 3.339415e-09 2.559888e-09 1.280667e-10 3.673120e-10
1.121875e-08 7.590104e-09 -3.673283e-08 -7.592312e-09 -7.832369e-09 -7.014489e-10
1.349555e-08 4.635399e-09 -3.883777e-08 -5.118187e-09 -1.775785e-08 -7.626017e-11
8.206394e-09 2.314327e-08 -4.282315e-08 -6.755196e-09 -5.543489e-09 -1.400053e-09
8.195837e-09 2.018586e-08 -3.545380e-08 -5.210785e-09 -1.070612e-08 -2.684324e-09
5.629287e-09 -1.770553e-08 -5.275513e-11 -2.070348e-09 -1.373555e-09 -3.426376e-10
5.404593e-09 -1.883729e-08 -7.717436e-10 -3.036866e-09 -3.657419e-09 -7.644423e-10
5.626472e-09 -1.991587e-08 2.577418e-10 -2.214501e-09 -1.283168e-09 -3.822351e-10
5.333893e-09 -1.635721e-08 -9.946477e-11 -1.558661e-09 -1.268195e-09 -4.666643e-10
7.196307e-09 -2.067423e-08 1.977232e-10 -1.519025e-09 -1.671699e-09 -5.799494e-10
5.283341e-09 -1.231746e-08 -7.895357e-09 -6.363795e-09 -2.871888e-09 -1.392823e-09
8.240603e-09 -1.043934e-08 -1.185271e-08 -8.196758e-09 -1.672841e-09 -1.460718e-09
8.261145e-09 -1.077569e-08 -1.124410e-08 -8.401147e-09 -7.315159e-09 -1.176150e-09
1.010539e-08 -1.821147e-08 -1.050577e-08 -5.484243e-09 -6.962805e-09 -6.304685e-10
9.343574e-09 -1.219414e-08 -1.168283e-08 -6.705666e-09 -5.791543e-09 -1.067528e-09
-3.896652e-09 1.761499e-09 6.567114e-10 2.037450e-10 7.066414e-11 -1.404781e-10
-3.737100e-09 1.513429e-09 6.554606e-10 3.272591e-10 5.057899e-11 -9.570578e-11
2.717826e-09 -8.662711e-10 -2.010940e-08 -1.422159e-08 8.610984e-09 5.929116e-09
3.142248e-09 -1.546565e-09 -5.383254e-10 -4.039271e-10 -3.867506e-11 -3.356382e-11
8.884368e-09 -6.400432e-09 -1.901709e-08 -1.296099e-08 7.662761e-09 3.299418e-09
1.440319e-08 4.784926e-09 -3.856349e-08 -8.206241e-09 6.657212e-09 4.556557e-09