# vtk DataFile Version 2.0
Simplicial Mesh Example
ASCII
DATASET UNSTRUCTURED_GRID
POINTS 33 double
-1.711074e+05 -5.004346e+04 -5.000000e+03
-1.602225e+05 -6.889674e+04 -1.750000e+04
-1.493375e+05 -8.775002e+04 -3.000000e+04
-1.481854e+05 -7.410809e+04 -2.307531e+04
-1.470333e+05 -6.046616e+04 -1.615061e+04
-1.360790e+05 -8.184694e+04 -3.000000e+04
-1.228205e+05 -7.594386e+04 -3.000000e+04
-1.349269e+05 -6.820501e+04 -2.307531e+04
-1.590704e+05 -5.525481e+04 -1.057531e+04
-9.155625e+04 -1.462500e+04 -5.000000e+03
-8.067130e+04 -3.347828e+04 -1.750000e+04
-9.243792e+04 -2.837695e+04 -1.204623e+04
-6.978636e+04 -5.233156e+04 -3.000000e+04
-8.155297e+04 -4.723023e+04 -2.454623e+04
-9.331958e+04 -4.212890e+04 -1.909245e+04
-9.630341e+04 -6.413771e+04 -3.000000e+04
-9.481150e+04 -5.313331e+04 -2.454623e+04
-8.304488e+04 -5.823464e+04 -3.000000e+04
-1.445903e+05 -3.823730e+04 -5.000000e+03
-1.458118e+05 -4.935173e+04 -1.057531e+04
-1.578489e+05 -4.414038e+04 -5.000000e+03
-1.048148e+05 -2.052808e+04 -5.000000e+03
-1.056964e+05 -3.428003e+04 -1.204623e+04
-1.180733e+05 -2.643115e+04 -5.000000e+03
-1.313318e+05 -3.233423e+04 -5.000000e+03
-1.095619e+05 -7.004079e+04 -3.000000e+04
-1.082059e+05 -5.592248e+04 -2.287193e+04
-1.214644e+05 -6.182556e+04 -2.287193e+04
-1.201084e+05 -4.770725e+04 -1.574386e+04
-1.335709e+05 -5.408671e+04 -1.594724e+04
-1.067140e+05 -4.491807e+04 -1.741816e+04
-1.190909e+05 -3.706920e+04 -1.037193e+04
-1.323494e+05 -4.297228e+04 -1.037193e+04
CELLS 48 192
3  3 2 5
3  4 3 7
3  7 5 6
3  5 7 3
3  8 0 1
3  4 8 3
3  3 1 2
3  8 1 3
3  10 9 11
3  12 10 13
3  13 11 14
3  10 11 13
3  16 15 17
3  14 16 13
3  13 17 12
3  17 13 16
3  19 18 20
3  4 19 8
3  8 20 0
3  19 20 8
3  11 9 21
3  14 11 22
3  22 21 23
3  21 22 11
3  25 15 26
3  6 25 27
3  27 26 28
3  26 27 25
3  7 6 27
3  4 7 29
3  29 27 28
3  27 29 7
3  26 15 16
3  28 26 30
3  30 16 14
3  16 30 26
3  31 23 24
3  28 31 32
3  32 24 18
3  31 24 32
3  22 23 31
3  14 22 30
3  30 31 28
3  22 31 30
3  32 18 19
3  28 32 29
3  29 19 4
3  19 29 32
CELL_TYPES 48
5
5
5
5
5
5
5
5
5
5
5
5
5
5
5
5
5
5
5
5
5
5
5
5
5
5
5
5
5
5
5
5
5
5
5
5
5
5
5
5
5
5
5
5
5
5
5
5
POINT_DATA 33
VECTORS slip double
0.000000e+00 0.000000e+00 0.000000e+00
0.000000e+00 0.000000e+00 0.000000e+00
0.000000e+00 0.000000e+00 0.000000e+00
0.000000e+00 0.000000e+00 0.000000e+00
0.000000e+00 0.000000e+00 0.000000e+00
0.000000e+00 0.000000e+00 0.000000e+00
0.000000e+00 0.000000e+00 0.000000e+00
0.000000e+00 0.000000e+00 0.000000e+00
-8.158402e-01 -1.261070e+00 0.000000e+00
0.000000e+00 0.000000e+00 0.000000e+00
0.000000e+00 0.000000e+00 0.000000e+00
-5.596582e-01 -6.887160e-01 -5.421011e-17
0.000000e+00 0.000000e+00 0.000000e+00
0.000000e+00 0.000000e+00 0.000000e+00
0.000000e+00 0.000000e+00 0.000000e+00
0.000000e+00 0.000000e+00 0.000000e+00
0.000000e+00 0.000000e+00 0.000000e+00
0.000000e+00 0.000000e+00 0.000000e+00
0.000000e+00 0.000000e+00 0.000000e+00
-2.053992e+00 -2.442104e+00 2.168404e-16
0.000000e+00 0.000000e+00 0.000000e+00
0.000000e+00 0.000000e+00 0.000000e+00
-1.474357e+00 -1.745573e+00 0.000000e+00
0.000000e+00 0.000000e+00 0.000000e+00
0.000000e+00 0.000000e+00 0.000000e+00
0.000000e+00 0.000000e+00 0.000000e+00
0.000000e+00 0.000000e+00 0.000000e+00
0.000000e+00 0.000000e+00 0.000000e+00
0.000000e+00 0.000000e+00 0.000000e+00
0.000000e+00 0.000000e+00 0.000000e+00
0.000000e+00 0.000000e+00 0.000000e+00
-1.865816e+00 -2.226456e+00 0.000000e+00
-2.149935e+00 -2.528178e+00 0.000000e+00
VECTORS traction double
0.000000e+00 0.000000e+00 0.000000e+00
0.000000e+00 0.000000e+00 0.000000e+00
0.000000e+00 0.000000e+00 0.000000e+00
-3.661920e+07 -5.497924e+07 -5.664414e+08
-4.078021e+07 -6.076670e+07 -4.160664e+08
0.000000e+00 0.000000e+00 0.000000e+00
0.000000e+00 0.000000e+00 0.000000e+00
-3.753994e+07 -5.534115e+07 -5.888401e+08
-3.288888e+07 -4.785633e+07 -2.903406e+08
0.000000e+00 0.000000e+00 0.000000e+00
0.000000e+00 0.000000e+00 0.000000e+00
-3.539454e+07 -5.232662e+07 -3.158658e+08
0.000000e+00 0.000000e+00 0.000000e+00
-3.673500e+07 -5.491742e+07 -5.929665e+08
-3.842246e+07 -5.742760e+07 -4.659887e+08
0.000000e+00 0.000000e+00 0.000000e+00
-3.735030e+07 -5.508815e+07 -6.219252e+08
0.000000e+00 0.000000e+00 0.000000e+00
0.000000e+00 0.000000e+00 0.000000e+00
-2.865760e+07 -4.141170e+07 -2.518028e+08
0.000000e+00 0.000000e+00 0.000000e+00
0.000000e+00 0.000000e+00 0.000000e+00
-3.190611e+07 -4.674754e+07 -2.829900e+08
0.000000e+00 0.000000e+00 0.000000e+00
0.000000e+00 0.000000e+00 0.000000e+00
0.000000e+00 0.000000e+00 0.000000e+00
-3.742009e+07 -5.514313e+07 -5.952142e+08
-3.750527e+07 -5.526585e+07 -5.856642e+08
-3.999682e+07 -6.001546e+07 -4.106017e+08
-3.961770e+07 -5.990835e+07 -4.122378e+08
-3.933322e+07 -5.943569e+07 -4.391233e+08
-2.917954e+07 -4.214139e+07 -2.562880e+08
-2.867103e+07 -4.113292e+07 -2.506963e+08
