# vtk DataFile Version 2.0
Simplicial Mesh Example
ASCII
DATASET UNSTRUCTURED_GRID
POINTS 5747 double
3.320296e+05 -1.479713e+05 -5.000000e+04
3.231117e+05 -1.694976e+05 -2.432604e+04
3.474531e+05 -1.606001e+05 -2.508933e+04
3.227386e+05 -1.447634e+05 -2.425528e+04
3.000000e+05 -1.659466e+05 0.000000e+00
3.323841e+05 -1.500853e+05 0.000000e+00
3.000000e+05 -1.298234e+05 -5.000000e+04
3.211980e+05 -1.225368e+05 -2.426738e+04
3.000000e+05 -1.488492e+05 -2.774542e+04
3.000000e+05 -1.638587e+05 -5.000000e+04
-3.410447e+05 -3.313729e+05 -5.000000e+04
-3.562308e+05 -3.573304e+05 -2.601066e+04
-3.400641e+05 -3.171355e+05 -2.518245e+04
-3.709216e+05 -3.294213e+05 -2.455579e+04
8.320003e+04 -3.000000e+05 -2.235380e+04
1.000000e+05 -3.000000e+05 0.000000e+00
8.376766e+04 -3.323560e+05 0.000000e+00
1.021017e+05 -3.230139e+05 -2.393989e+04
9.189646e+04 -3.476152e+05 -2.483836e+04
7.389417e+04 -3.240317e+05 -2.539793e+04
8.376391e+04 -3.320935e+05 -5.000000e+04
1.000000e+05 -3.000000e+05 -5.000000e+04
6.666667e+04 -3.000000e+05 -5.000000e+04
4.944468e+04 -3.212857e+05 -2.165974e+04
-3.000000e+05 -2.284991e+05 -5.000000e+04
-3.319474e+05 -2.124896e+05 -5.000000e+04
-3.213498e+05 -2.362895e+05 -2.757616e+04
-3.182279e+05 -2.138175e+05 -3.187491e+04
3.680760e+05 -6.909438e+04 0.000000e+00
3.760615e+05 -8.538341e+04 -2.424849e+04
3.481927e+05 -6.095077e+04 -2.496244e+04
3.758237e+05 -5.045542e+04 -2.419632e+04
-3.000000e+05 -2.326501e+05 0.000000e+00
-3.000000e+05 -2.125115e+05 -2.265069e+04
-3.000000e+05 -1.989752e+05 0.000000e+00
-3.222890e+05 -1.925429e+05 -2.782913e+04
-3.324295e+05 -2.170264e+05 0.000000e+00
-2.490803e+05 -3.000000e+05 -2.221961e+04
-2.515393e+05 -3.324613e+05 0.000000e+00
-2.666667e+05 -3.000000e+05 0.000000e+00
-2.736161e+05 -3.250545e+05 -2.495123e+04
3.676956e+05 -6.866168e+04 -5.000000e+04
4.000000e+05 -8.695652e+04 -5.000000e+04
4.000000e+05 -5.217391e+04 -5.000000e+04
4.000000e+05 -6.957979e+04 -2.232138e+04
-2.333333e+05 -3.000000e+05 -5.000000e+04
-2.666667e+05 -3.000000e+05 -5.000000e+04
-2.512538e+05 -3.321783e+05 -5.000000e+04
-2.508099e+05 -3.235453e+05 -2.887646e+04
-2.289455e+05 -3.238420e+05 -2.574418e+04
-2.333712e+05 -3.500457e+05 -2.527316e+04
-1.499969e+05 -3.000000e+05 -2.764283e+04
-1.666667e+05 -3.000000e+05 0.000000e+00
-1.707207e+05 -3.230060e+05 -2.516231e+04
-1.484539e+05 -3.229549e+05 -2.532466e+04
-1.507909e+05 -3.323848e+05 0.000000e+00
-1.623180e+05 -3.500580e+05 -2.480559e+04
-1.507405e+05 -3.321164e+05 -5.000000e+04
-1.195254e+05 -3.221356e+05 -2.186727e+04
-1.333333e+05 -3.000000e+05 -5.000000e+04
-1.666667e+05 -3.000000e+05 -5.000000e+04
-1.043477e+05 4.000000e+05 -2.232281e+04
-1.038755e+05 3.680862e+05 0.000000e+00
-1.217391e+05 4.000000e+05 0.000000e+00
-1.225518e+05 3.786565e+05 -2.424433e+04
-1.217391e+05 4.000000e+05 -5.000000e+04
-9.213417e+04 3.778403e+05 -2.651563e+04
-6.923876e+04 -3.678233e+05 -5.000000e+04
-8.695652e+04 -4.000000e+05 -5.000000e+04
-5.217391e+04 -4.000000e+05 -5.000000e+04
-6.956714e+04 -4.000000e+05 -2.232106e+04
-1.249685e+05 3.520706e+05 -2.482839e+04
-1.038072e+05 3.678091e+05 -5.000000e+04
-1.739130e+04 -4.000000e+05 -5.000000e+04
-3.460350e+04 -3.678269e+05 -5.000000e+04
-3.478387e+04 -4.000000e+05 -2.232106e+04
-1.636761e+04 -3.752737e+05 -2.444865e+04
-8.376345e+04 3.320934e+05 -5.000000e+04
-1.000000e+05 3.000000e+05 -5.000000e+04
-8.343627e+04 3.000000e+05 -2.764981e+04
-1.023685e+05 3.239702e+05 -2.442960e+04
-6.666667e+04 3.000000e+05 -5.000000e+04
-5.137625e+04 3.218639e+05 -2.279542e+04
4.000000e+05 3.304348e+05 -5.000000e+04
4.000000e+05 3.130499e+05 -2.232112e+04
4.000000e+05 3.478935e+05 -2.235349e+04
3.672790e+05 3.296172e+05 -2.474204e+04
-6.047286e+04 3.474481e+05 -2.417549e+04
-7.724413e+04 3.236644e+05 -1.839304e+04
-8.379954e+04 3.323534e+05 0.000000e+00
-9.034627e+04 3.505377e+05 -2.472678e+04
3.000000e+05 -8.185378e+04 -2.769067e+04
3.000000e+05 -6.540655e+04 0.000000e+00
3.219928e+05 -9.278579e+04 -2.350525e+04
3.213251e+05 -6.350280e+04 -2.571256e+04
3.320030e+05 -7.972620e+04 -5.000000e+04
3.000000e+05 -4.823862e+04 -2.768751e+04
3.000000e+05 -6.175270e+04 -5.000000e+04
3.319980e+05 -4.560520e+04 -5.000000e+04
1.000000e+05 3.000000e+05 0.000000e+00
1.285492e+05 3.222096e+05 -2.333515e+04
1.166485e+05 3.000000e+05 -2.764255e+04
9.914085e+04 3.215417e+05 -2.557715e+04
1.172876e+05 3.321041e+05 -5.000000e+04
1.000000e+05 3.000000e+05 -5.000000e+04
1.172617e+05 3.323725e+05 0.000000e+00
1.739130e+04 -4.000000e+05 -5.000000e+04
3.478141e+04 -4.000000e+05 -2.232106e+04
3.460470e+04 -3.678270e+05 -5.000000e+04
1.641570e+04 -3.754506e+05 -2.427397e+04
9.664453e+04 3.481306e+05 -2.480840e+04
3.680819e+05 1.387484e+05 0.000000e+00
3.785149e+05 1.273940e+05 -2.666552e+04
3.525231e+05 1.597326e+05 -2.515442e+04
3.789806e+05 1.574581e+05 -2.426681e+04
4.000000e+05 1.565217e+05 0.000000e+00
4.000000e+05 1.391303e+05 -2.231930e+04
6.857177e+00 3.678309e+05 -5.000000e+04
1.673721e+04 3.320840e+05 -5.000000e+04
3.460423e+04 3.678269e+05 -5.000000e+04
2.844178e+04 3.508410e+05 -2.472162e+04
-3.461370e+04 -3.681008e+05 0.000000e+00
-1.739130e+04 -4.000000e+05 0.000000e+00
-1.676283e+04 3.320851e+05 -5.000000e+04
1.378112e+03 3.362478e+05 -2.510890e+04
3.679848e+05 1.390962e+05 -5.000000e+04
-4.999978e+04 -3.000000e+05 -2.235748e+04
-1.678469e+04 -3.000000e+05 -2.764887e+04
-1.676668e+04 -3.323444e+05 0.000000e+00
-5.479522e+04 -3.231600e+05 -2.798751e+04
4.000000e+05 1.565217e+05 -5.000000e+04
3.676239e+05 -2.421373e+05 -5.000000e+04
4.000000e+05 -2.434785e+05 -2.767896e+04
3.747721e+05 -2.281712e+05 -2.555946e+04
3.781731e+05 -2.607592e+05 -2.587663e+04
-3.128530e+05 -3.661813e+05 -5.000000e+04
-2.847026e+05 -3.321560e+05 -5.000000e+04
-3.161470e+05 -3.277621e+05 -5.000000e+04
-3.118625e+05 -3.403622e+05 -2.486951e+04
3.509470e+05 -2.651753e+05 -2.498209e+04
3.679951e+05 -2.423193e+05 0.000000e+00
4.000000e+05 -2.608696e+05 0.000000e+00
-1.455192e-10 3.000000e+05 -5.000000e+04
-1.665884e+04 3.000000e+05 -2.764283e+04
1.678621e+04 3.000000e+05 -2.764891e+04
3.000000e+05 -2.490234e+05 -2.248769e+04
3.324577e+05 -2.511100e+05 0.000000e+00
3.233427e+05 -2.639090e+05 -2.386118e+04
3.213235e+05 -2.322625e+05 -2.427257e+04
3.320637e+05 -2.503757e+05 -5.000000e+04
3.463445e+05 -2.305992e+05 -2.486406e+04
-3.698054e+05 -3.472763e+05 0.000000e+00
-3.663396e+05 -3.129808e+05 0.000000e+00
-3.315797e+05 -3.410949e+05 0.000000e+00
3.000000e+05 -2.319293e+05 -5.000000e+04
1.730839e+05 3.678997e+05 -5.000000e+04
1.571960e+05 3.749995e+05 -2.566968e+04
1.944750e+05 3.532359e+05 -2.496627e+04
1.915336e+05 3.784005e+05 -2.606486e+04
1.913043e+05 4.000000e+05 -5.000000e+04
1.739026e+05 4.000000e+05 -2.767885e+04
3.704421e+05 3.503181e+05 -5.000000e+04
-3.674293e+05 -2.066073e+05 -5.000000e+04
-3.492083e+05 -2.290965e+05 -2.538588e+04
-3.495470e+05 -1.977513e+05 -2.540621e+04
1.731007e+05 3.680556e+05 0.000000e+00
1.913043e+05 4.000000e+05 0.000000e+00
4.000000e+05 2.956522e+05 0.000000e+00
4.000000e+05 2.782599e+05 -2.232106e+04
3.699311e+05 2.951557e+05 -2.461389e+04
-2.177434e+05 -3.321524e+05 -5.000000e+04
-2.166738e+05 -3.000000e+05 -2.767207e+04
-2.000187e+05 -3.211973e+05 -2.674237e+04
-1.983970e+05 -3.480803e+05 -2.513770e+04
-2.179099e+05 -3.324288e+05 0.000000e+00
-2.000000e+05 -3.000000e+05 0.000000e+00
-4.000000e+05 -1.739130e+04 -5.000000e+04
-4.000000e+05 1.362271e+00 -2.232106e+04
-4.000000e+05 -3.478139e+04 -2.232106e+04
-3.765178e+05 -1.619438e+04 -2.422406e+04
-1.172644e+05 3.321057e+05 -5.000000e+04
-1.165333e+05 3.000000e+05 -2.235380e+04
-1.172626e+05 3.323723e+05 0.000000e+00
-1.350440e+05 3.242838e+05 -2.422565e+04
-1.000000e+05 3.000000e+05 0.000000e+00
3.000000e+05 -1.154172e+05 -2.769106e+04
3.000000e+05 -9.891990e+04 0.000000e+00
3.323674e+05 -1.164140e+05 0.000000e+00
3.494097e+05 -9.677091e+04 -2.469271e+04
3.320115e+05 -1.138445e+05 -5.000000e+04
3.000000e+05 -9.578803e+04 -5.000000e+04
-3.683842e+05 -3.117444e+05 -5.000000e+04
-3.704229e+05 -3.502942e+05 -5.000000e+04
-3.000000e+05 -1.676695e+04 -5.000000e+04
-3.000000e+05 -3.162526e+04 0.000000e+00
-3.000000e+05 1.537267e+03 0.000000e+00
-3.225488e+05 -1.458354e+04 -2.331887e+04
-2.625540e+05 -3.498971e+05 -2.512137e+04
-3.324526e+05 -2.845988e+05 0.000000e+00
-3.280582e+05 -3.160567e+05 0.000000e+00
-2.333333e+05 -3.000000e+05 0.000000e+00
-1.731007e+05 -3.680556e+05 0.000000e+00
-1.546296e+05 -3.758014e+05 -2.505216e+04
-1.738957e+05 -4.000000e+05 -2.758994e+04
-1.891587e+05 -3.758626e+05 -2.496961e+04
-2.077253e+05 -3.680332e+05 0.000000e+00
-2.239576e+05 -3.758730e+05 -2.504417e+04
-1.913043e+05 -4.000000e+05 -5.000000e+04
-2.086560e+05 -4.000000e+05 -2.240978e+04
-1.730589e+05 -3.677722e+05 -5.000000e+04
6.957979e+04 4.000000e+05 -2.232138e+04
5.217391e+04 4.000000e+05 0.000000e+00
3.478536e+04 4.000000e+05 -2.232108e+04
5.076412e+04 3.763602e+05 -2.419392e+04
5.217391e+04 4.000000e+05 -5.000000e+04
1.674987e+04 3.323474e+05 0.000000e+00
3.522601e+04 3.242376e+05 -2.441795e+04
3.461320e+04 3.681000e+05 0.000000e+00
4.999984e+04 3.000000e+05 -2.235747e+04
3.333333e+04 3.000000e+05 0.000000e+00
1.635001e+04 3.759242e+05 -2.428818e+04
-3.680268e+05 2.424010e+05 0.000000e+00
-3.502043e+05 2.289782e+05 -2.514523e+04
-3.680500e+05 2.077851e+05 0.000000e+00
-3.762988e+05 2.231425e+05 -2.580358e+04
6.042780e+04 3.499876e+05 -2.481666e+04
-1.731195e+05 3.680519e+05 0.000000e+00
-1.546044e+05 3.764508e+05 -2.417358e+04
-1.611291e+05 3.501230e+05 -2.473775e+04
-1.910926e+05 3.750896e+05 -2.428174e+04
-1.384382e+05 3.677954e+05 -5.000000e+04
-4.000000e+05 2.260870e+05 0.000000e+00
-4.000000e+05 2.086964e+05 -2.767894e+04
-1.565217e+05 4.000000e+05 -5.000000e+04
-1.391303e+05 4.000000e+05 -2.231930e+04
-1.739120e+05 4.000000e+05 -2.232105e+04
-2.883046e+05 -3.320639e+05 0.000000e+00
-3.323717e+05 -1.156481e+05 0.000000e+00
-3.485545e+05 -1.011074e+05 -2.467716e+04
-3.242629e+05 -9.130955e+04 -2.346029e+04
-3.283241e+05 -1.238851e+05 -2.581831e+04
[...]
POINT_DATA 5747
VECTORS displacement double
-2.010136e-04 3.420997e-04 -6.143312e-05
-1.648034e-04 3.730765e-04 -5.641916e-05
-1.318599e-04 3.546623e-04 -5.936389e-05
-2.398209e-04 3.444069e-04 -6.845962e-05
-2.348744e-04 3.889352e-04 -6.427149e-05
-1.952082e-04 3.569263e-04 -6.973433e-05
-3.695970e-04 3.289915e-04 -6.907198e-05
-3.038920e-04 3.069167e-04 -7.737079e-05
-3.018848e-04 3.605362e-04 -6.626015e-05
-2.428957e-04 3.733446e-04 -5.448621e-05
-4.868381e-04 -8.713038e-05 1.688379e-05
-3.405514e-04 8.965845e-06 1.180755e-04
-4.714557e-04 -6.751767e-05 -3.341890e-05
-2.364261e-04 7.724250e-05 5.083355e-05
1.018387e-03 -3.874706e-04 -2.295727e-05
9.160474e-04 -1.974666e-04 2.175895e-05
1.100094e-03 -2.390562e-04 7.809697e-05
1.039028e-03 -1.888325e-04 6.091970e-05
1.138124e-03 -1.868599e-04 9.718722e-05
1.141628e-03 -3.877316e-04 2.679257e-05
1.171572e-03 -2.973253e-04 5.139754e-05
1.002078e-03 -2.588719e-04 -4.195623e-06
1.145079e-03 -5.793244e-04 -7.451282e-05
1.190948e-03 -6.286223e-04 -3.272398e-05
-8.533601e-04 -6.224662e-04 -7.966760e-04
-4.842483e-04 6.970673e-05 -6.233523e-04
-6.254208e-04 -2.802304e-04 -5.916263e-04
-6.061992e-04 -3.026616e-04 -7.345101e-04
-1.606489e-04 1.615132e-04 -9.224537e-05
-1.125357e-04 2.034723e-04 -8.344557e-05
-2.670830e-04 1.385868e-04 -8.949021e-05
-1.258479e-04 1.023193e-04 -8.847353e-05
-6.540384e-04 -7.109310e-04 -7.685619e-04
-7.582042e-04 -8.078660e-04 -9.238034e-04
-5.491169e-04 -8.435396e-04 -9.571392e-04
-4.374690e-04 -1.624660e-04 -7.688495e-04
-3.683451e-04 -1.030368e-05 -6.136382e-04
-9.230060e-04 -1.412887e-03 -5.363791e-04
-7.345133e-04 -7.511083e-04 -1.790349e-04
-7.854411e-04 -9.266232e-04 -3.928408e-04
-8.138421e-04 -6.887083e-04 -1.862249e-04
-1.628425e-04 1.565350e-04 -8.045742e-05
0.000000e+00 2.043584e-04 -7.616122e-05
0.000000e+00 1.065191e-04 -8.102857e-05
0.000000e+00 1.578604e-04 -8.615541e-05
-1.002636e-03 -1.746033e-03 -6.164838e-04
-9.713265e-04 -1.081815e-03 -4.249280e-04
-8.849312e-04 -9.365455e-04 -2.242520e-04
-8.541642e-04 -1.046646e-03 -2.983438e-04
-8.226777e-04 -1.353026e-03 -3.897326e-04
-7.482528e-04 -8.153715e-04 -1.533096e-04
-2.286924e-04 -3.198154e-03 -1.076087e-03
-3.865083e-04 -2.646039e-03 -9.626485e-04
-4.184918e-04 -2.073135e-03 -5.956437e-04
-1.590308e-04 -2.278191e-03 -6.459246e-04
-1.562813e-04 -1.695497e-03 -4.610693e-04
-2.711179e-04 -1.328947e-03 -2.977333e-04
-1.840898e-04 -1.986421e-03 -5.013466e-04
2.095547e-04 -2.343654e-03 -6.522648e-04
7.695537e-06 -3.215099e-03 -1.040414e-03
-4.799956e-04 -2.956885e-03 -9.853890e-04
5.783570e-04 0.000000e+00 4.336972e-04
5.830905e-04 5.549347e-04 4.512856e-04
4.727338e-04 0.000000e+00 4.707249e-04
4.534142e-04 3.922290e-04 4.340974e-04
4.623717e-04 0.000000e+00 4.079286e-04
6.531981e-04 3.924117e-04 4.184998e-04
7.736997e-04 -8.195296e-04 -1.008321e-04
5.872103e-04 0.000000e+00 -4.795085e-05
9.186889e-04 0.000000e+00 -1.574903e-06
7.221662e-04 0.000000e+00 -9.053108e-06
4.222506e-04 8.882293e-04 4.123730e-04
5.729746e-04 6.006564e-04 3.878311e-04
1.154840e-03 0.000000e+00 4.828555e-05
1.062450e-03 -6.747221e-04 -3.764002e-05
9.959922e-04 0.000000e+00 4.079581e-05
1.112603e-03 -4.404614e-04 2.882227e-05
6.899414e-04 1.244880e-03 3.340597e-04
5.464137e-04 1.954075e-03 2.480657e-04
6.636698e-04 1.809389e-03 2.717651e-04
5.524038e-04 1.401335e-03 3.499831e-04
7.879772e-04 1.774068e-03 2.476307e-04
8.785744e-04 1.233362e-03 3.337031e-04
0.000000e+00 -1.520103e-04 5.264385e-05
0.000000e+00 -1.915783e-04 5.315682e-05
0.000000e+00 -1.182620e-04 6.066414e-05
1.205008e-04 -1.547809e-04 5.862766e-05
8.326677e-04 8.493292e-04 3.778049e-04
7.222720e-04 1.311268e-03 3.517531e-04
6.919040e-04 1.141137e-03 3.962849e-04
6.551475e-04 8.741908e-04 3.963955e-04
-5.004979e-04 2.158930e-04 -8.893925e-05
-5.249152e-04 1.683592e-04 -9.926067e-05
-3.637459e-04 2.370488e-04 -8.705493e-05
-4.090597e-04 1.521689e-04 -9.090485e-05
-3.345363e-04 1.957497e-04 -8.090772e-05
-5.470597e-04 1.110823e-04 -9.233464e-05
-5.368973e-04 1.561958e-04 -8.504784e-05
-3.653703e-04 9.488340e-05 -8.423231e-05
1.034652e-03 3.598165e-04 2.259260e-04
9.914640e-04 1.838860e-04 1.977177e-04
9.749427e-04 2.875068e-04 1.959489e-04
1.060815e-03 3.162002e-04 2.253922e-04
1.033878e-03 2.121105e-04 1.985418e-04
1.020703e-03 3.963795e-04 1.956881e-04
1.058774e-03 1.915112e-04 2.293058e-04
1.278680e-03 0.000000e+00 9.534474e-05
1.248779e-03 0.000000e+00 1.290035e-04
1.295321e-03 -3.364092e-04 7.950713e-05
1.223197e-03 -3.008484e-04 8.687351e-05
1.107801e-03 2.263557e-04 2.420389e-04
-4.108125e-05 -3.541059e-04 -3.115895e-05
-3.841580e-05 -3.324202e-04 -3.579924e-05
-2.943682e-05 -3.506753e-04 -1.617892e-05
-1.456150e-05 -3.498533e-04 -1.871845e-05
0.000000e+00 -3.647725e-04 -2.100389e-05
0.000000e+00 -3.431584e-04 -3.071803e-05
1.091984e-03 3.928720e-04 3.237870e-04
1.121283e-03 7.219278e-04 2.846542e-04
1.149994e-03 2.986262e-04 2.930028e-04
1.140788e-03 4.635207e-04 3.127774e-04
9.610094e-04 -5.714331e-04 9.874841e-06
1.061274e-03 0.000000e+00 9.325994e-05
1.038986e-03 9.240678e-04 3.057920e-04
1.087102e-03 7.416808e-04 3.248454e-04
-4.591367e-05 -3.349109e-04 -2.728368e-05
9.827054e-04 -2.446768e-03 -6.857852e-04
1.184320e-03 -1.907547e-03 -4.892091e-04
1.054427e-03 -1.074330e-03 -1.448934e-04
9.452256e-04 -1.901259e-03 -4.454819e-04
0.000000e+00 -3.451018e-04 -1.779009e-05
1.712015e-05 3.482568e-04 -1.588602e-05
0.000000e+00 3.498695e-04 -1.716980e-05
-7.127866e-07 3.664255e-04 -2.430595e-05
2.486681e-05 3.301601e-04 -9.061958e-06
-6.481125e-04 -1.431752e-04 7.949657e-05
-8.216574e-04 -5.596265e-04 -1.133531e-04
-6.596511e-04 -2.637611e-04 -4.798488e-05
-6.359473e-04 -2.197391e-04 5.873460e-06
5.984374e-05 3.278628e-04 -5.953283e-06
1.733720e-05 3.642238e-04 -1.897956e-05
0.000000e+00 3.409561e-04 -9.888423e-06
1.076383e-03 1.214489e-03 2.474295e-04
1.016272e-03 1.330022e-03 2.704225e-04
1.090668e-03 1.028362e-03 2.631213e-04
8.310006e-05 3.542260e-04 -9.373609e-06
5.936463e-05 3.589805e-04 -1.184527e-05
9.680748e-05 3.317489e-04 -3.500187e-06
1.593281e-05 3.681715e-04 -2.107367e-05
5.627100e-05 3.435446e-04 -1.142209e-05
3.868912e-06 3.663845e-04 -2.313251e-05
-2.237262e-04 9.789036e-05 1.189947e-04
-2.538607e-04 1.690188e-04 7.378230e-07
-4.842057e-04 -2.392754e-05 6.122386e-05
2.180054e-05 3.669284e-04 -1.683543e-05
9.000540e-04 2.038004e-05 1.555393e-04
9.693310e-04 3.020090e-05 1.831953e-04
8.157014e-04 -4.104631e-06 1.451790e-04
8.459143e-04 -7.192503e-07 1.508537e-04
8.448641e-04 0.000000e+00 1.413726e-04
9.174986e-04 0.000000e+00 1.674493e-04
1.134844e-04 -1.085283e-04 5.766556e-05
-1.834387e-04 5.206623e-04 -4.803951e-04
-3.678145e-04 1.554597e-04 -4.788847e-04
-2.534692e-04 2.900485e-04 -5.934561e-04
9.295375e-04 1.427489e-05 1.793744e-04
8.739976e-04 0.000000e+00 1.629572e-04
0.000000e+00 -2.326442e-04 5.111321e-05
0.000000e+00 -2.559207e-04 4.141972e-05
9.551476e-05 -2.230073e-04 4.871339e-05
-7.896789e-04 -1.345675e-03 -3.412178e-04
-8.856738e-04 -2.108803e-03 -7.591036e-04
-6.846280e-04 -1.815123e-03 -5.427346e-04
-5.887252e-04 -1.144198e-03 -2.472014e-04
-6.585569e-04 -1.113090e-03 -2.895279e-04
-6.648854e-04 -2.156521e-03 -8.198069e-04
0.000000e+00 4.654223e-04 -2.615754e-04
0.000000e+00 4.394703e-04 -2.947625e-04
0.000000e+00 5.691704e-04 -3.128111e-04
4.738665e-04 5.053774e-04 -2.461431e-04
4.538287e-04 1.313537e-03 3.424507e-04
4.147143e-04 1.922717e-03 2.795072e-04
4.614843e-04 1.204196e-03 4.123224e-04
3.133062e-04 1.433877e-03 3.615005e-04
5.398885e-04 1.781146e-03 3.039415e-04
-4.136873e-04 3.011676e-04 -7.993186e-05
-4.549524e-04 2.667155e-04 -9.207321e-05
-2.709050e-04 2.962557e-04 -8.489467e-05
-2.282162e-04 2.378410e-04 -8.291479e-05
-2.764616e-04 2.801522e-04 -7.325245e-05
-4.716336e-04 2.540964e-04 -8.005953e-05
-2.792991e-04 7.751132e-05 -1.991391e-05
-2.488667e-04 2.351754e-05 9.845777e-05
2.620705e-03 6.336642e-04 6.951914e-04
1.912334e-03 9.578843e-04 6.298982e-04
1.434206e-03 1.343516e-03 3.626270e-04
1.609290e-03 6.928196e-04 1.946496e-04
-7.778420e-04 -5.607688e-04 -7.667742e-05
-4.769791e-04 -4.249058e-05 -2.107857e-04
-5.006994e-04 -6.773174e-05 -4.871030e-05
-7.972463e-04 -1.534029e-03 -6.107655e-04
-3.184449e-04 -6.934279e-04 -1.100072e-04
-1.627021e-04 -6.368507e-04 -1.281580e-04
-3.372335e-04 0.000000e+00 -5.746937e-05
-4.738056e-04 -5.410362e-04 -9.441654e-05
-5.602297e-04 -5.551251e-04 -6.315200e-05
-6.734824e-04 -4.146840e-04 -4.231755e-05
-5.029840e-04 0.000000e+00 -5.338060e-05
-5.803650e-04 0.000000e+00 -1.552034e-05
-3.664875e-04 -8.251974e-04 -1.515387e-04
1.164910e-03 0.000000e+00 2.848457e-04
1.189040e-03 0.000000e+00 3.225341e-04
1.157891e-03 0.000000e+00 3.243573e-04
1.164315e-03 1.800200e-04 3.015635e-04
1.162359e-03 0.000000e+00 2.803194e-04
1.125050e-03 6.658439e-04 3.318281e-04
1.130492e-03 6.608957e-04 2.860228e-04
1.171828e-03 2.751106e-04 3.376953e-04
1.099430e-03 7.367086e-04 2.522358e-04
1.105823e-03 8.414674e-04 2.794286e-04
1.129313e-03 2.464446e-04 3.382424e-04
-1.909300e-04 8.898918e-04 2.595733e-04
-3.299408e-04 1.101133e-03 1.805727e-04
-2.159770e-04 9.320072e-04 1.440721e-04
-1.638891e-04 9.675272e-04 1.804058e-04
1.150546e-03 3.442625e-04 2.810002e-04
1.301128e-04 5.503254e-04 4.724031e-04
2.432194e-04 4.314079e-04 4.427811e-04
1.756371e-04 9.143200e-04 4.194513e-04
2.727210e-05 4.298029e-04 4.467835e-04
3.397559e-04 6.158392e-04 4.017833e-04
0.000000e+00 8.489155e-04 2.159834e-04
0.000000e+00 9.260119e-04 1.390540e-04
2.329582e-04 0.000000e+00 4.157765e-04
3.508002e-04 0.000000e+00 4.495409e-04
1.354658e-04 0.000000e+00 4.570055e-04
-6.841714e-04 -3.832105e-04 -7.342080e-05
5.421118e-04 2.901297e-04 -4.364329e-04
7.310072e-04 6.840396e-04 -3.447384e-04
1.191356e-03 5.334449e-04 -1.352855e-04
5.235760e-04 3.875459e-04 -4.685861e-04
1.184535e-04 1.431283e-04 -6.373623e-04
-1.014652e-04 -5.361822e-06 -7.345970e-04
6.295048e-06 4.686205e-04 -6.183634e-04
3.623752e-04 6.151402e-04 -5.543602e-04
3.641500e-04 6.491273e-04 -4.988843e-04
1.246263e-03 6.165464e-04 -5.539280e-06
1.078223e-03 5.955726e-04 -8.490810e-05
1.168451e-03 6.856495e-04 -1.182064e-04
6.099708e-04 6.458875e-04 -2.715517e-04
-8.379610e-04 -8.167525e-04 -3.497562e-04
-6.634085e-04 -3.243563e-04 -1.451663e-04
-8.083220e-05 -3.161927e-04 -5.207301e-05
0.000000e+00 -3.396242e-04 -4.231905e-05
0.000000e+00 -3.060464e-04 -4.960164e-05
2.576828e-03 6.765615e-04 7.537215e-04
1.777031e-03 6.159258e-04 1.335683e-04
-3.114830e-06 -3.651561e-04 -9.019299e-06
-4.070825e-06 -3.444035e-04 -9.043743e-06
0.000000e+00 7.864049e-04 3.132545e-04
0.000000e+00 8.897120e-04 2.435036e-04
-1.375625e-04 8.880246e-04 2.804434e-04
-8.517772e-05 -2.993736e-04 -4.467418e-05
-8.804002e-05 -3.307816e-04 -3.645828e-05
-6.373048e-05 -2.887820e-04 -5.319611e-05
8.757341e-04 4.665428e-05 1.176642e-04
9.376847e-04 1.626987e-05 1.185350e-04
7.543418e-04 8.261406e-05 8.969161e-05
7.884368e-04 4.114386e-05 9.926362e-05
7.279521e-04 7.307747e-05 9.554282e-05
6.126878e-04 1.147654e-04 7.272554e-05
6.379203e-04 5.705859e-05 7.863776e-05
7.211464e-04 6.386160e-05 8.162902e-05
7.386279e-04 5.859999e-04 -2.073571e-04
0.000000e+00 6.887237e-04 -2.970990e-04
1.297327e-04 3.042618e-04 5.955164e-06
1.189511e-04 2.600017e-04 1.056993e-05
1.935337e-04 2.337802e-04 2.099175e-05
1.665446e-04 2.735766e-04 1.251856e-05
6.696747e-04 0.000000e+00 8.772431e-05
7.364971e-04 0.000000e+00 9.390478e-05
4.351735e-04 2.516315e-04 4.318426e-05
4.764493e-04 1.835203e-04 5.572775e-05
6.056144e-04 1.622190e-04 7.273979e-05
5.066895e-04 1.842662e-04 5.504506e-05
6.597916e-04 0.000000e+00 7.613669e-05
-1.181230e-04 0.000000e+00 4.212481e-04
-6.280342e-05 5.461099e-04 4.097876e-04
-4.208028e-05 0.000000e+00 4.596234e-04
-1.221466e-04 3.505341e-04 4.490953e-04
6.123273e-04 1.568451e-04 5.139755e-05
6.710388e-04 1.347312e-04 5.840721e-05
8.731024e-04 4.526968e-05 9.680413e-05
7.361077e-04 1.198655e-04 8.692355e-05
-1.530441e-04 7.679723e-04 4.264398e-04
-5.110560e-05 5.018150e-04 4.756566e-04
-1.095999e-04 0.000000e+00 4.886983e-04
7.429769e-04 8.361604e-04 -1.382421e-04
1.162290e-03 7.153500e-04 1.067859e-05
4.567753e-04 5.176544e-04 -2.747922e-04
7.585006e-04 5.593976e-04 -1.724980e-04
-1.858176e-04 4.795893e-04 4.101124e-04
-2.307288e-04 5.711954e-04 4.346160e-04
-1.361261e-04 -3.346434e-04 -4.162359e-05
-1.540995e-04 -2.910279e-04 -5.383461e-05
-2.102318e-04 -2.968635e-04 -4.966039e-05
-1.168151e-04 -3.381686e-04 -3.106185e-05
-1.360599e-04 -3.202422e-04 -3.446808e-05
-2.614547e-04 -3.104249e-04 -4.875717e-05
-3.499578e-04 1.234929e-03 -2.986006e-04
-3.166179e-04 1.018195e-03 -2.322447e-04
-4.490100e-04 1.275149e-03 -1.667104e-04
-5.522624e-04 1.458594e-03 -3.052204e-04
0.000000e+00 7.550415e-04 -5.222223e-04
3.850272e-04 6.671077e-04 -4.496426e-04
1.750221e-04 6.452239e-04 -5.521624e-04
2.298223e-04 7.923089e-04 -4.843612e-04
5.156200e-04 9.206840e-04 -3.847584e-04
0.000000e+00 9.686586e-04 -4.540329e-04
2.471918e-04 8.888882e-04 -4.939638e-04
5.044050e-04 7.624464e-04 -3.654729e-04
0.000000e+00 8.165551e-04 -4.600380e-04
5.394735e-05 7.196907e-04 -5.527316e-04
-5.711717e-04 1.377610e-03 -5.729731e-05
-5.510036e-04 1.450527e-03 2.396682e-05
-3.767096e-04 1.155255e-03 5.156674e-05
-5.953403e-04 1.504179e-03 -1.492297e-04
-2.649899e-05 3.711428e-04 -2.838224e-05
-6.183725e-05 3.762718e-04 -4.250870e-05
-1.135055e-04 3.723621e-04 -4.606328e-05
-7.189521e-05 3.838557e-04 -3.946889e-05
-7.512515e-04 1.917336e-03 -1.751596e-04
-7.690160e-04 1.879349e-03 -8.228736e-05
-7.895222e-04 1.997389e-03 -3.801132e-04
-8.778420e-04 1.976699e-03 -2.868195e-04
-5.554740e-04 1.296012e-03 -2.118066e-04
4.747058e-04 1.300826e-04 5.507871e-05
-3.834942e-04 1.126940e-03 -9.654138e-05
9.428856e-04 1.843096e-04 1.928285e-04
8.715939e-04 1.279542e-04 1.655985e-04
8.859583e-04 7.064647e-05 1.656984e-04
9.602547e-04 8.297073e-05 1.931245e-04
1.022940e-03 1.189671e-04 2.049476e-04
9.328647e-04 1.004063e-04 1.658990e-04
9.240805e-04 2.097232e-04 1.686026e-04
-1.916407e-04 3.879563e-05 -6.976496e-04
4.084623e-04 -9.007112e-04 -1.503475e-04
5.803849e-04 -6.239101e-04 -8.566627e-05
4.929582e-04 -1.427380e-03 -2.765087e-04
2.103260e-04 -6.493594e-04 -1.200950e-04
4.891689e-06 -7.685624e-04 -1.273886e-04
4.635457e-06 0.000000e+00 -6.472550e-05
3.615421e-04 -7.642720e-04 -1.023177e-04
8.432870e-05 -1.424515e-03 -3.099508e-04
3.766502e-04 0.000000e+00 -4.772513e-05
1.794241e-04 0.000000e+00 -2.848593e-05
5.708939e-04 7.937939e-05 6.438874e-05
6.025917e-04 1.457065e-04 6.349469e-05
1.014414e-03 3.691648e-06 1.352477e-04
9.688736e-04 0.000000e+00 1.340791e-04
1.035239e-03 0.000000e+00 1.349593e-04
1.077007e-03 -2.813535e-05 1.322208e-04
8.928890e-04 3.282350e-05 1.004096e-04
-5.046167e-04 1.329028e-03 8.647747e-05
-2.542515e-04 1.043950e-03 1.076757e-04
1.029265e-03 -1.446737e-05 1.127536e-04
9.743367e-04 0.000000e+00 1.161321e-04
8.776858e-04 3.336649e-05 1.001118e-04
0.000000e+00 8.836669e-04 1.336210e-05
0.000000e+00 7.684347e-04 -4.422311e-05
0.000000e+00 7.728625e-04 -1.178686e-04
-1.771047e-04 8.927092e-04 -7.840670e-05
-2.680369e-04 9.985139e-04 -1.676312e-05
0.000000e+00 8.458623e-04 -5.179533e-05
-2.390112e-04 8.659581e-04 -1.448701e-04
-1.911338e-04 8.234957e-04 -1.370041e-04
-1.360234e-04 7.600716e-04 -2.049281e-04
1.120689e-03 0.000000e+00 1.285560e-04
1.164101e-03 -9.257358e-05 1.193576e-04
1.193629e-03 -8.697260e-05 1.357623e-04
1.157792e-03 0.000000e+00 1.478710e-04
1.039650e-03 -6.416315e-05 1.089680e-04
1.130757e-03 -6.161104e-05 1.458254e-04
1.099398e-03 0.000000e+00 1.531697e-04
1.149137e-03 -7.666653e-04 -4.496345e-05
1.213183e-03 -2.863350e-04 1.177014e-04
1.133478e-03 -4.235065e-04 7.087656e-05
1.237019e-03 -5.768792e-04 2.737156e-05
0.000000e+00 8.084315e-04 -5.264692e-04
0.000000e+00 8.935687e-04 -5.021756e-04
-2.624932e-05 7.343827e-04 -5.430543e-04
0.000000e+00 7.101236e-04 -5.246706e-04
0.000000e+00 7.304305e-04 -5.501305e-04
-4.593520e-06 5.789600e-04 -5.755306e-04
1.152795e-03 0.000000e+00 3.633249e-04
1.095427e-03 0.000000e+00 3.607998e-04
1.041529e-03 3.234340e-04 3.682505e-04
1.131204e-03 0.000000e+00 3.145789e-04
2.665172e-05 -3.558038e-04 5.445101e-07
3.574260e-05 -3.426242e-04 5.104755e-06
-3.034536e-05 -3.436383e-04 -1.154831e-05
3.290648e-05 -3.284345e-04 4.076021e-06
7.214769e-05 -3.289154e-04 1.210092e-05
-5.299209e-05 -3.375625e-04 -1.638713e-05
-1.480072e-05 -3.244977e-04 -1.763843e-06
-1.327298e-04 -3.222903e-04 -2.227430e-05
2.513372e-05 -3.344435e-04 1.712542e-06
1.791091e-03 7.779463e-04 7.401260e-05
1.667413e-03 6.166753e-04 1.733966e-04
1.264115e-03 -5.516592e-04 4.900469e-06
1.149766e-03 -7.920834e-04 -1.318165e-04
1.008468e-03 4.641272e-04 -1.863106e-04
-8.326463e-04 1.908508e-03 -4.598482e-04
-3.995422e-04 1.108249e-03 -3.183091e-04
-5.085461e-04 1.675312e-03 -4.806840e-04
-3.687121e-04 1.329480e-03 -3.864625e-04
-4.821903e-04 2.064573e-03 -5.308356e-04
-1.179970e-04 1.146092e-03 -3.501659e-04
-4.148759e-04 1.207059e-03 2.113015e-04
-3.690967e-04 1.106564e-03 2.901742e-04
-2.723012e-04 9.738365e-04 2.862986e-04
-4.644202e-04 1.310745e-03 1.736634e-04
-3.275772e-04 9.966881e-04 2.984337e-04
-3.040414e-04 8.536154e-04 3.765382e-04
-2.230546e-04 7.844989e-04 3.585544e-04
-3.972260e-04 1.180652e-03 3.139460e-04
-2.898874e-04 8.770500e-04 3.639790e-04
8.917944e-04 -5.299521e-04 -3.059906e-05
6.949993e-04 -6.895152e-04 -5.552465e-05
8.339944e-04 0.000000e+00 4.299450e-05
1.062690e-03 -1.022443e-03 -1.087849e-04
8.283216e-04 -1.147371e-03 -1.766983e-04
-1.163613e-04 -2.513814e-04 -6.901787e-05
0.000000e+00 -2.431526e-04 -6.569399e-05
0.000000e+00 -2.104322e-04 -7.622370e-05
-8.602296e-05 -2.186504e-04 -6.865690e-05
-1.181816e-04 -2.377906e-04 -5.916692e-05
0.000000e+00 -2.695868e-04 -5.220688e-05
0.000000e+00 -2.874253e-04 -6.102081e-05
1.193596e-03 0.000000e+00 1.332927e-04
1.175662e-03 0.000000e+00 9.256308e-05
4.890198e-04 2.195559e-04 4.518189e-05
5.484660e-04 2.099815e-04 5.309550e-05
6.284776e-04 1.521382e-04 6.787128e-05
5.551797e-04 1.857252e-04 4.387559e-05
-1.614155e-04 1.649906e-03 3.416423e-04
-1.522622e-04 1.032550e-03 4.334009e-04
1.128860e-05 1.145707e-03 4.295193e-04
-1.176299e-04 1.299963e-03 3.754366e-04
5.747945e-04 5.714095e-04 -2.677876e-04
-2.465553e-04 1.122756e-03 3.869142e-04
-2.854159e-04 1.372423e-04 -9.502811e-05
-4.097056e-04 5.341230e-05 -3.078161e-04
-6.070086e-04 -2.321843e-04 -3.305714e-04
-1.775261e-04 1.127376e-03 3.671952e-04
-1.545311e-05 9.003694e-04 4.196947e-04
-2.543078e-04 1.625135e-03 3.185866e-04
-6.034261e-06 1.248909e-03 3.577737e-04
-1.967307e-04 1.806804e-03 2.756751e-04
-7.997582e-05 1.817523e-03 3.018541e-04
-1.041980e-04 3.278811e-04 -7.124830e-05
0.000000e+00 3.188346e-04 -6.550706e-05
0.000000e+00 3.518182e-04 -6.169079e-05
-5.540075e-05 3.575928e-04 -5.578630e-05
-1.049657e-04 3.150004e-04 -6.238860e-05
-1.780137e-04 3.093613e-04 -7.202688e-05
0.000000e+00 3.569215e-04 -5.088931e-05
-6.254017e-05 3.716155e-04 -5.648556e-05
0.000000e+00 3.378001e-04 -5.538217e-05
1.294762e-03 0.000000e+00 1.248056e-04
1.250968e-03 -1.851524e-04 1.216317e-04
1.205100e-03 -1.614610e-04 1.391216e-04
1.234535e-03 0.000000e+00 1.559052e-04
1.218481e-03 -3.385072e-04 7.779169e-05
4.674971e-04 1.700373e-04 4.763971e-05
3.802054e-04 2.497826e-04 3.553779e-05
3.856495e-04 2.003172e-04 4.097696e-05
-2.184583e-04 -2.855618e-04 -6.129758e-05
-2.892518e-04 -2.470092e-04 -6.297914e-05
-4.259511e-04 -2.118488e-04 -7.042806e-05
-3.130180e-04 -1.615428e-04 -7.807834e-05
-2.829972e-04 -2.073272e-04 -6.467036e-05
-3.278036e-04 -2.698022e-04 -5.399534e-05
-3.769922e-04 -2.509771e-04 -6.756920e-05
4.086427e-04 -1.689873e-04 7.460947e-05
5.133875e-04 -1.329727e-04 8.887998e-05
4.632527e-04 -1.648215e-04 8.655479e-05
4.740405e-04 -1.245411e-04 8.555284e-05
5.580604e-04 -8.995522e-05 9.218866e-05
4.449079e-04 -1.512453e-04 7.391070e-05
4.292931e-04 -1.157755e-04 7.593188e-05
5.206719e-04 -7.979248e-05 9.408932e-05
5.772316e-04 -9.883629e-05 1.069649e-04
1.012905e-03 7.023216e-05 1.879051e-04
9.684942e-04 0.000000e+00 1.722778e-04