# vtk DataFile Version 2.0
Simplicial Mesh Example
ASCII
DATASET UNSTRUCTURED_GRID
POINTS 9196 double
3.320296e+05 -1.479713e+05 -5.000000e+04
3.230490e+05 -1.698867e+05 -2.450301e+04
3.473967e+05 -1.610091e+05 -2.499295e+04
3.230191e+05 -1.453594e+05 -2.376374e+04
3.000000e+05 -1.659466e+05 0.000000e+00
3.323841e+05 -1.500853e+05 0.000000e+00
3.000000e+05 -1.298234e+05 -5.000000e+04
3.211390e+05 -1.219510e+05 -2.456343e+04
3.000000e+05 -1.488492e+05 -2.774542e+04
3.000000e+05 -1.638587e+05 -5.000000e+04
-3.410447e+05 -3.313729e+05 -5.000000e+04
-3.562722e+05 -3.568159e+05 -2.596779e+04
-3.399470e+05 -3.173800e+05 -2.518749e+04
-3.709613e+05 -3.293268e+05 -2.460153e+04
8.320003e+04 -3.000000e+05 -2.235380e+04
1.000000e+05 -3.000000e+05 0.000000e+00
8.376766e+04 -3.323560e+05 0.000000e+00
1.022059e+05 -3.232166e+05 -2.436054e+04
9.218191e+04 -3.479439e+05 -2.506288e+04
7.450652e+04 -3.246631e+05 -2.586070e+04
8.376391e+04 -3.320935e+05 -5.000000e+04
1.000000e+05 -3.000000e+05 -5.000000e+04
6.666667e+04 -3.000000e+05 -5.000000e+04
4.909161e+04 -3.211949e+05 -2.159753e+04
-3.000000e+05 -2.284991e+05 -5.000000e+04
-3.319474e+05 -2.124896e+05 -5.000000e+04
-3.218152e+05 -2.373449e+05 -2.716838e+04
-3.186433e+05 -2.130922e+05 -3.089857e+04
3.680760e+05 -6.909438e+04 0.000000e+00
3.760404e+05 -8.535114e+04 -2.432411e+04
3.481610e+05 -6.095230e+04 -2.499963e+04
3.758419e+05 -5.047205e+04 -2.434620e+04
-3.000000e+05 -2.326501e+05 0.000000e+00
-3.000000e+05 -2.125115e+05 -2.265069e+04
-3.000000e+05 -1.989752e+05 0.000000e+00
-3.227151e+05 -1.919352e+05 -2.817559e+04
-3.324295e+05 -2.170264e+05 0.000000e+00
-2.490803e+05 -3.000000e+05 -2.221961e+04
-2.515393e+05 -3.324613e+05 0.000000e+00
-2.666667e+05 -3.000000e+05 0.000000e+00
-2.738346e+05 -3.252416e+05 -2.491374e+04
3.676956e+05 -6.866168e+04 -5.000000e+04
4.000000e+05 -8.695652e+04 -5.000000e+04
4.000000e+05 -5.217391e+04 -5.000000e+04
4.000000e+05 -6.957979e+04 -2.232138e+04
-2.333333e+05 -3.000000e+05 -5.000000e+04
-2.666667e+05 -3.000000e+05 -5.000000e+04
-2.512538e+05 -3.321783e+05 -5.000000e+04
-2.508504e+05 -3.238766e+05 -2.894778e+04
-2.288410e+05 -3.237531e+05 -2.554757e+04
-2.332968e+05 -3.501801e+05 -2.524712e+04
-1.499969e+05 -3.000000e+05 -2.764283e+04
-1.666667e+05 -3.000000e+05 0.000000e+00
-1.716166e+05 -3.233333e+05 -2.542063e+04
-1.478789e+05 -3.226382e+05 -2.533861e+04
-1.507909e+05 -3.323848e+05 0.000000e+00
-1.630826e+05 -3.498393e+05 -2.503121e+04
-1.507405e+05 -3.321164e+05 -5.000000e+04
-1.194653e+05 -3.220088e+05 -2.222167e+04
-1.333333e+05 -3.000000e+05 -5.000000e+04
-1.666667e+05 -3.000000e+05 -5.000000e+04
-1.043477e+05 4.000000e+05 -2.232281e+04
-1.038755e+05 3.680862e+05 0.000000e+00
-1.217391e+05 4.000000e+05 0.000000e+00
-1.224620e+05 3.788441e+05 -2.436654e+04
-1.217391e+05 4.000000e+05 -5.000000e+04
-9.211340e+04 3.779330e+05 -2.656844e+04
-6.923876e+04 -3.678233e+05 -5.000000e+04
-8.695652e+04 -4.000000e+05 -5.000000e+04
-5.217391e+04 -4.000000e+05 -5.000000e+04
-6.956714e+04 -4.000000e+05 -2.232106e+04
-1.249943e+05 3.519836e+05 -2.486759e+04
-1.038072e+05 3.678091e+05 -5.000000e+04
-1.739130e+04 -4.000000e+05 -5.000000e+04
-3.460350e+04 -3.678269e+05 -5.000000e+04
-3.478387e+04 -4.000000e+05 -2.232106e+04
-1.651509e+04 -3.754742e+05 -2.442335e+04
-8.376345e+04 3.320934e+05 -5.000000e+04
-1.000000e+05 3.000000e+05 -5.000000e+04
-8.343627e+04 3.000000e+05 -2.764981e+04
-1.026187e+05 3.239050e+05 -2.445309e+04
-6.666667e+04 3.000000e+05 -5.000000e+04
-5.147032e+04 3.217565e+05 -2.303829e+04
4.000000e+05 3.304348e+05 -5.000000e+04
4.000000e+05 3.130499e+05 -2.232112e+04
4.000000e+05 3.478935e+05 -2.235349e+04
3.674886e+05 3.295924e+05 -2.467361e+04
-6.033593e+04 3.477011e+05 -2.439908e+04
-7.701272e+04 3.234532e+05 -1.862781e+04
-8.379954e+04 3.323534e+05 0.000000e+00
-9.028036e+04 3.505284e+05 -2.483995e+04
3.000000e+05 -8.185378e+04 -2.769067e+04
3.000000e+05 -6.540655e+04 0.000000e+00
3.219834e+05 -9.262369e+04 -2.356665e+04
3.212381e+05 -6.353317e+04 -2.568389e+04
3.320030e+05 -7.972620e+04 -5.000000e+04
3.000000e+05 -4.823862e+04 -2.768751e+04
3.000000e+05 -6.175270e+04 -5.000000e+04
3.319980e+05 -4.560520e+04 -5.000000e+04
1.000000e+05 3.000000e+05 0.000000e+00
1.285319e+05 3.220153e+05 -2.330358e+04
1.166485e+05 3.000000e+05 -2.764255e+04
9.924408e+04 3.212454e+05 -2.557582e+04
1.172876e+05 3.321041e+05 -5.000000e+04
1.000000e+05 3.000000e+05 -5.000000e+04
1.172617e+05 3.323725e+05 0.000000e+00
1.739130e+04 -4.000000e+05 -5.000000e+04
3.478141e+04 -4.000000e+05 -2.232106e+04
3.460470e+04 -3.678270e+05 -5.000000e+04
1.646691e+04 -3.753828e+05 -2.432691e+04
9.656745e+04 3.481700e+05 -2.494853e+04
3.680819e+05 1.387484e+05 0.000000e+00
3.789347e+05 1.274418e+05 -2.657151e+04
3.531101e+05 1.597755e+05 -2.518599e+04
3.792098e+05 1.574583e+05 -2.441774e+04
4.000000e+05 1.565217e+05 0.000000e+00
4.000000e+05 1.391303e+05 -2.231930e+04
6.857177e+00 3.678309e+05 -5.000000e+04
1.673721e+04 3.320840e+05 -5.000000e+04
3.460423e+04 3.678269e+05 -5.000000e+04
2.880282e+04 3.508021e+05 -2.489257e+04
-3.461370e+04 -3.681008e+05 0.000000e+00
-1.739130e+04 -4.000000e+05 0.000000e+00
-1.676283e+04 3.320851e+05 -5.000000e+04
1.537478e+03 3.361402e+05 -2.528450e+04
3.679848e+05 1.390962e+05 -5.000000e+04
-4.999978e+04 -3.000000e+05 -2.235748e+04
-1.678469e+04 -3.000000e+05 -2.764887e+04
-1.676668e+04 -3.323444e+05 0.000000e+00
-5.499684e+04 -3.228669e+05 -2.776930e+04
4.000000e+05 1.565217e+05 -5.000000e+04
3.676239e+05 -2.421373e+05 -5.000000e+04
4.000000e+05 -2.434785e+05 -2.767896e+04
3.747803e+05 -2.281317e+05 -2.552755e+04
3.782485e+05 -2.607848e+05 -2.580555e+04
-3.128530e+05 -3.661813e+05 -5.000000e+04
-2.847026e+05 -3.321560e+05 -5.000000e+04
-3.161470e+05 -3.277621e+05 -5.000000e+04
-3.120399e+05 -3.401367e+05 -2.465985e+04
3.512666e+05 -2.655302e+05 -2.501422e+04
3.679951e+05 -2.423193e+05 0.000000e+00
4.000000e+05 -2.608696e+05 0.000000e+00
-1.455192e-10 3.000000e+05 -5.000000e+04
-1.665884e+04 3.000000e+05 -2.764283e+04
1.678621e+04 3.000000e+05 -2.764891e+04
3.000000e+05 -2.490234e+05 -2.248769e+04
3.324577e+05 -2.511100e+05 0.000000e+00
3.238293e+05 -2.640014e+05 -2.441041e+04
3.212088e+05 -2.325011e+05 -2.423874e+04
3.320637e+05 -2.503757e+05 -5.000000e+04
3.463683e+05 -2.303855e+05 -2.500317e+04
-3.698054e+05 -3.472763e+05 0.000000e+00
-3.663396e+05 -3.129808e+05 0.000000e+00
-3.315797e+05 -3.410949e+05 0.000000e+00
3.000000e+05 -2.319293e+05 -5.000000e+04
1.730839e+05 3.678997e+05 -5.000000e+04
1.571942e+05 3.749461e+05 -2.554585e+04
1.947972e+05 3.532715e+05 -2.489915e+04
1.912984e+05 3.786912e+05 -2.581857e+04
1.913043e+05 4.000000e+05 -5.000000e+04
1.739026e+05 4.000000e+05 -2.767885e+04
3.704421e+05 3.503181e+05 -5.000000e+04
-3.674293e+05 -2.066073e+05 -5.000000e+04
-3.494471e+05 -2.292202e+05 -2.526698e+04
-3.497009e+05 -1.977915e+05 -2.539897e+04
1.731007e+05 3.680556e+05 0.000000e+00
1.913043e+05 4.000000e+05 0.000000e+00
4.000000e+05 2.956522e+05 0.000000e+00
4.000000e+05 2.782599e+05 -2.232106e+04
3.700232e+05 2.952130e+05 -2.459328e+04
-2.177434e+05 -3.321524e+05 -5.000000e+04
-2.166738e+05 -3.000000e+05 -2.767207e+04
-2.002275e+05 -3.215730e+05 -2.585451e+04
-1.985707e+05 -3.482959e+05 -2.510962e+04
-2.179099e+05 -3.324288e+05 0.000000e+00
-2.000000e+05 -3.000000e+05 0.000000e+00
-4.000000e+05 -1.739130e+04 -5.000000e+04
-4.000000e+05 1.362271e+00 -2.232106e+04
-4.000000e+05 -3.478139e+04 -2.232106e+04
-3.764375e+05 -1.615686e+04 -2.441389e+04
-1.172644e+05 3.321057e+05 -5.000000e+04
-1.165333e+05 3.000000e+05 -2.235380e+04
-1.172626e+05 3.323723e+05 0.000000e+00
-1.351151e+05 3.242796e+05 -2.432698e+04
-1.000000e+05 3.000000e+05 0.000000e+00
3.000000e+05 -1.154172e+05 -2.769106e+04
3.000000e+05 -9.891990e+04 0.000000e+00
3.323674e+05 -1.164140e+05 0.000000e+00
3.494970e+05 -9.661460e+04 -2.478315e+04
3.320115e+05 -1.138445e+05 -5.000000e+04
3.000000e+05 -9.578803e+04 -5.000000e+04
-3.683842e+05 -3.117444e+05 -5.000000e+04
-3.704229e+05 -3.502942e+05 -5.000000e+04
-3.000000e+05 -1.676695e+04 -5.000000e+04
-3.000000e+05 -3.162526e+04 0.000000e+00
-3.000000e+05 1.537267e+03 0.000000e+00
-3.215156e+05 -1.436666e+04 -2.547447e+04
-2.627419e+05 -3.499829e+05 -2.513924e+04
-3.324526e+05 -2.845988e+05 0.000000e+00
-3.280582e+05 -3.160567e+05 0.000000e+00
-2.333333e+05 -3.000000e+05 0.000000e+00
-1.731007e+05 -3.680556e+05 0.000000e+00
-1.545447e+05 -3.761882e+05 -2.496605e+04
-1.738957e+05 -4.000000e+05 -2.758994e+04
-1.892592e+05 -3.758330e+05 -2.503546e+04
-2.077253e+05 -3.680332e+05 0.000000e+00
-2.238681e+05 -3.761511e+05 -2.500739e+04
-1.913043e+05 -4.000000e+05 -5.000000e+04
-2.086560e+05 -4.000000e+05 -2.240978e+04
-1.730589e+05 -3.677722e+05 -5.000000e+04
6.957979e+04 4.000000e+05 -2.232138e+04
5.217391e+04 4.000000e+05 0.000000e+00
3.478536e+04 4.000000e+05 -2.232108e+04
5.076709e+04 3.763881e+05 -2.432357e+04
5.217391e+04 4.000000e+05 -5.000000e+04
1.674987e+04 3.323474e+05 0.000000e+00
3.500461e+04 3.242904e+05 -2.486949e+04
3.461320e+04 3.681000e+05 0.000000e+00
4.999984e+04 3.000000e+05 -2.235747e+04
3.333333e+04 3.000000e+05 0.000000e+00
1.624297e+04 3.760050e+05 -2.438535e+04
-3.680268e+05 2.424010e+05 0.000000e+00
-3.501061e+05 2.289790e+05 -2.510660e+04
-3.680500e+05 2.077851e+05 0.000000e+00
-3.762767e+05 2.231686e+05 -2.569080e+04
6.044606e+04 3.500124e+05 -2.491520e+04
-1.731195e+05 3.680519e+05 0.000000e+00
-1.545405e+05 3.762789e+05 -2.429555e+04
-1.611352e+05 3.500581e+05 -2.482426e+04
-1.910310e+05 3.748826e+05 -2.441742e+04
-1.384382e+05 3.677954e+05 -5.000000e+04
-4.000000e+05 2.260870e+05 0.000000e+00
-4.000000e+05 2.086964e+05 -2.767894e+04
-1.565217e+05 4.000000e+05 -5.000000e+04
-1.391303e+05 4.000000e+05 -2.231930e+04
-1.739120e+05 4.000000e+05 -2.232105e+04
-2.883046e+05 -3.320639e+05 0.000000e+00
-3.323717e+05 -1.156481e+05 0.000000e+00
-3.489067e+05 -1.010526e+05 -2.439261e+04
-3.250615e+05 -9.110468e+04 -2.328549e+04
-3.294786e+05 -1.230635e+05 -2.464286e+04
[...]
CELL_DATA 17893
SCALARS total_strain double 6
LOOKUP_TABLE default
1.822183e-08 3.992762e-09 -3.840730e-09 -9.590101e-09 4.805918e-09 -2.300531e-09
8.339448e-09 6.627856e-09 -5.464927e-09 -3.549593e-09 4.002367e-09 -9.942744e-10
-2.718361e-09 1.328364e-08 -6.456487e-09 -2.114720e-09 4.655741e-09 -5.172991e-09
1.935458e-09 1.169089e-08 -7.074427e-09 -1.002257e-08 2.081369e-09 -4.938246e-09
-1.468386e-09 1.334148e-08 -5.888865e-09 -3.597804e-09 6.074174e-09 -6.068757e-09
-7.064996e-09 -4.741952e-09 6.175567e-10 3.285540e-09 -1.879955e-09 6.807512e-10
-6.309187e-09 -6.026744e-09 2.593356e-09 1.653557e-09 -8.892991e-10 -3.637899e-10
-6.110447e-09 -8.130030e-09 1.802552e-09 2.595022e-09 -2.210238e-09 7.237543e-11
-8.776837e-09 -1.964393e-09 1.423389e-09 2.630408e-09 6.522904e-10 -2.172716e-10
-8.400832e-09 -1.127410e-09 1.247566e-09 1.083667e-09 -9.241059e-10 -9.813928e-11
-6.254194e-09 -5.690419e-09 2.171396e-09 1.444594e-09 -5.698557e-10 -3.292709e-10
-8.569249e-09 -1.740657e-09 1.638916e-09 1.426603e-09 -1.054243e-09 -1.242877e-10
3.052665e-08 6.761168e-10 -6.100016e-09 -7.433028e-09 1.849190e-09 -1.411461e-09
1.617077e-08 8.235246e-09 -6.718127e-09 -1.192396e-08 -1.466062e-10 -9.185831e-11
1.863192e-08 3.772068e-09 -5.186772e-09 -9.432014e-09 5.416632e-09 -2.313722e-09
1.744376e-08 -3.084808e-10 -4.688738e-09 3.641847e-12 3.021298e-09 7.322498e-10
1.837205e-08 5.027169e-09 -5.410967e-09 -3.519592e-09 2.102920e-09 2.446499e-09
1.729508e-08 1.314363e-09 -5.508460e-09 3.651441e-10 3.300651e-09 2.642731e-10
-1.394261e-08 1.442704e-08 -6.741363e-09 5.312218e-09 7.544720e-09 -4.592558e-09
-1.853875e-08 1.708692e-08 -6.014318e-09 6.079076e-09 6.148211e-09 -4.822911e-09
-1.122066e-08 1.254583e-08 -4.254254e-09 1.821321e-09 3.382022e-09 -7.430474e-10
-1.654534e-08 1.039277e-08 -1.219649e-09 4.654132e-09 5.314412e-09 -1.809434e-09
-1.709638e-08 1.423020e-08 -4.463051e-09 6.109990e-09 6.931042e-09 -3.235289e-09
-1.810966e-08 1.328713e-08 -4.593814e-09 9.536615e-09 6.811497e-09 -3.588371e-09
9.707223e-09 -4.595252e-09 -1.198353e-09 -2.822101e-09 -3.789430e-10 -7.683112e-10
-7.522427e-09 4.742430e-09 1.098244e-09 -4.809886e-10 -2.048805e-12 -1.239695e-10
-7.718214e-09 4.624868e-09 1.008446e-09 -8.013297e-10 -1.165203e-10 -3.147751e-10
-7.267737e-09 4.769420e-09 8.650691e-10 -9.805712e-10 -1.621761e-10 -3.378450e-10
-7.832488e-09 4.924061e-09 9.732970e-10 -7.125972e-10 -9.436452e-11 -4.195212e-10
-7.576690e-09 4.654211e-09 1.046811e-09 -1.027736e-09 -1.552807e-10 1.278194e-10
-7.844189e-09 4.615502e-09 1.065665e-09 -1.259703e-09 -1.815515e-10 -2.325495e-10
-3.954813e-09 2.630011e-09 5.341318e-10 6.719638e-10 1.331530e-10 -4.480214e-10
-4.889595e-09 2.791141e-09 4.952949e-10 6.680596e-10 1.169851e-10 -8.450662e-11
-4.001258e-09 2.382826e-09 3.172942e-10 4.056179e-10 -1.041473e-12 -1.631117e-11
3.767788e-08 -1.366043e-08 -6.860176e-08 -1.337796e-08 2.947883e-08 7.059250e-09
-5.087042e-11 -2.517072e-08 7.140089e-09 3.186858e-09 2.961166e-11 -2.854530e-10
4.040697e-10 -2.400602e-08 7.251044e-09 1.193437e-09 -6.029026e-10 3.555307e-10
-2.141221e-10 -2.616858e-08 7.521383e-09 1.932647e-09 -1.974945e-10 2.113221e-10
1.692822e-09 -2.645910e-08 7.507054e-09 1.288703e-09 -2.681871e-10 1.524936e-10
1.023076e-08 -5.596743e-09 -1.372133e-09 -2.837888e-10 -5.883402e-11 5.205747e-11
9.801884e-09 -5.644824e-09 -1.383039e-09 1.693183e-11 -4.177126e-11 7.316103e-11
1.661884e-08 -3.625726e-08 -8.749054e-09 -9.119391e-09 3.102008e-09 1.167219e-10
1.008163e-08 -5.576576e-09 -1.345618e-09 2.863826e-10 3.710371e-11 5.496936e-12
9.837231e-09 -5.599979e-09 -1.331665e-09 3.871935e-11 2.688202e-11 4.911194e-11
9.907360e-09 -5.719827e-09 -1.362343e-09 -5.668122e-11 -2.905628e-11 3.743139e-11
-1.692023e-08 8.269431e-09 -7.398651e-10 -1.847500e-09 4.107799e-10 -2.565670e-10
6.600551e-09 -3.740566e-09 -1.035332e-09 -1.386603e-09 -1.512439e-10 -6.975331e-11
6.341105e-09 -3.100411e-09 -8.263845e-10 -1.614054e-09 -2.390038e-10 -1.895606e-10
5.678761e-09 -3.156646e-09 -9.073304e-10 -1.948543e-09 -3.597955e-10 5.570852e-10
6.681622e-09 -3.151141e-09 -9.844949e-10 -1.696151e-09 -5.096217e-10 1.525775e-10
6.453043e-09 -3.809637e-09 -1.142146e-09 -1.481537e-09 -3.238571e-10 -1.535659e-10
8.976485e-09 -2.993173e-08 5.748836e-09 -3.756636e-09 -1.246179e-09 -4.708486e-10
8.912050e-09 -3.098388e-08 5.805947e-09 -3.383451e-09 2.578561e-10 -6.986746e-10
6.093177e-09 -2.663987e-08 5.795716e-09 -4.605086e-09 -2.407287e-10 -7.796216e-10
8.906986e-09 -3.081146e-08 6.215446e-09 -3.334675e-09 6.192386e-10 -5.154261e-10
5.951710e-09 -2.402093e-08 5.007596e-09 -4.079399e-09 9.592397e-10 -6.645495e-10
6.254679e-09 -2.845390e-08 5.620985e-09 -4.909986e-09 -1.151687e-10 -2.328375e-10
6.571750e-09 -2.701041e-08 5.938565e-09 -2.533500e-09 -4.623855e-11 -1.254440e-09
1.890435e-08 -3.063887e-08 -1.208941e-08 -1.042618e-08 -6.404862e-09 -4.537169e-10
1.560510e-08 -3.515647e-08 -6.152366e-09 -5.151042e-09 -2.826432e-09 -6.162446e-10
1.185949e-08 -3.019351e-08 -8.325594e-09 -6.832811e-09 2.432337e-10 -3.774114e-10
1.557401e-08 -3.675964e-08 -4.131413e-09 -9.079905e-09 -5.210513e-09 -2.788970e-09
1.267648e-08 -3.170054e-08 -4.971197e-09 -5.609893e-09 -4.570509e-09 -1.456039e-10
1.201937e-08 -3.195503e-08 -6.659772e-09 -7.178968e-09 -3.296902e-09 -1.875071e-09
-6.049828e-09 -6.581010e-09 1.481882e-09 1.240743e-09 -2.887475e-10 -1.707232e-10
-5.898535e-09 -6.406969e-09 1.531982e-09 1.492763e-09 -6.219347e-10 -2.988348e-10
-6.592129e-09 -6.122760e-09 2.027956e-09 -3.837636e-10 4.571063e-10 4.075051e-11
5.529799e-08 -2.172662e-08 -2.063816e-11 -5.196306e-10 -1.762702e-10 7.235934e-09
-7.807335e-09 -6.714593e-09 2.644106e-09 -7.687994e-09 -3.484359e-09 -1.279364e-09
-1.013707e-08 -2.082952e-09 8.485417e-10 -6.834282e-09 -2.177657e-09 -5.967123e-10
-1.324855e-08 -4.526830e-09 1.044093e-09 -4.022191e-09 -2.117775e-09 -1.365547e-10
-1.237101e-08 3.216014e-10 2.172387e-09 -4.742104e-09 -1.975440e-09 -1.280214e-09
-1.250301e-08 -1.979009e-09 1.189363e-09 -5.906059e-09 -2.499630e-09 -8.271111e-10
2.331632e-08 8.578823e-08 -1.438710e-07 -3.755175e-10 3.144594e-08 -1.770811e-09
-1.134027e-08 -7.143530e-09 2.606306e-09 -5.614551e-09 -3.626753e-09 -3.431426e-10
-9.063044e-09 -1.881755e-09 2.216897e-09 2.115446e-10 -1.237423e-09 -2.397120e-10
-1.878828e-08 1.388205e-08 -4.538420e-09 9.605737e-09 6.596194e-09 -3.489027e-09
-1.556535e-08 1.424813e-08 -4.365998e-09 8.041973e-09 6.848721e-09 -4.489402e-09
-1.567914e-08 4.446585e-09 -3.240284e-09 1.323875e-08 2.075657e-09 -1.369249e-09
-1.739294e-08 1.451447e-08 -5.355860e-09 9.444153e-09 3.916504e-09 -2.421698e-09
-1.972971e-08 1.167348e-08 -6.180645e-09 1.212742e-08 5.100559e-09 -3.385423e-09
-1.631835e-08 1.137935e-08 -6.231424e-09 1.375150e-08 4.976395e-09 -2.842096e-09
-1.500399e-08 1.222459e-08 -5.956224e-09 1.195669e-08 5.726509e-09 -3.447502e-09
1.615202e-08 -4.343337e-08 -2.417026e-09 -1.109882e-08 -1.409664e-08 -3.165077e-09
1.340652e-08 -4.531904e-08 1.194805e-09 -1.337620e-08 -1.350562e-08 -2.314180e-09
1.156840e-08 -3.247149e-08 3.484568e-11 -1.770284e-08 -1.316939e-08 -4.389877e-09
6.455650e-09 -3.146903e-08 7.398029e-10 -1.360374e-08 -1.227669e-08 -2.142702e-09
1.435762e-08 -3.335269e-08 -1.896751e-09 -1.785720e-08 -1.173090e-08 -5.221087e-09
1.120058e-08 -4.419359e-08 -2.344791e-09 -1.978569e-08 -2.008322e-08 -5.680528e-09
1.456356e-08 -4.078146e-08 5.599134e-09 1.242653e-10 2.126843e-09 -1.236675e-10
1.052335e-08 -6.204925e-09 -1.484068e-09 4.024052e-10 1.060450e-10 1.411893e-11
1.137089e-08 -6.204925e-09 -1.554012e-09 3.955800e-10 9.810734e-11 4.768681e-10
1.033485e-08 -6.023107e-09 -1.321765e-09 -5.333021e-10 -9.107862e-11 1.615602e-10
1.068115e-08 -6.056805e-09 -1.318496e-09 -4.733877e-10 -7.900994e-11 1.987341e-10
1.088083e-08 -5.898718e-09 -1.339735e-09 -1.172030e-09 -1.398673e-10 1.085319e-10
1.072064e-08 -6.247782e-09 -1.484627e-09 -4.889251e-10 9.931622e-11 2.092919e-10
1.032079e-08 -6.075108e-09 -1.394957e-09 -1.113482e-09 -1.401809e-10 4.046905e-10
-6.287945e-09 2.438438e-09 1.350405e-09 1.256385e-09 3.194982e-10 3.062484e-10
-9.086626e-09 1.305581e-08 -5.033524e-09 -3.959372e-09 -9.269138e-09 -6.737211e-09
-1.426503e-08 1.664369e-08 -4.344027e-09 -5.344757e-09 -7.655231e-09 -7.816881e-09
-1.443038e-08 1.949719e-08 -8.308681e-09 -4.577419e-09 -9.608765e-09 -9.746051e-09
-5.435915e-09 4.271268e-09 5.638210e-10 -9.385106e-10 -2.684237e-10 -1.370661e-10
-5.475986e-09 4.272032e-09 5.896925e-10 -9.444703e-10 -1.603420e-10 1.692313e-10
-5.434613e-09 4.113717e-09 5.090330e-10 -9.371632e-10 -1.665499e-10 -1.417531e-10
-5.462942e-09 4.085329e-09 4.391825e-10 -1.457914e-09 -3.485623e-10 -1.119166e-10
-4.394428e-09 3.638725e-09 3.030425e-10 -1.271257e-09 -1.169209e-10 1.633552e-10
-5.449088e-09 3.787925e-09 5.091934e-10 -1.353896e-09 -1.799657e-10 -1.781362e-10
-4.638624e-09 3.662430e-09 2.164799e-10 -1.195948e-09 -1.857920e-10 3.168232e-10
-5.450211e-09 3.638444e-09 2.534231e-10 -1.339300e-09 -3.769045e-10 -1.599672e-10
-1.573285e-08 1.084790e-08 -3.845959e-09 5.407937e-09 4.165045e-09 -1.683172e-09
3.192237e-08 6.590572e-08 -1.520671e-07 7.187082e-09 7.282721e-08 -8.303315e-09
1.333739e-08 -3.841971e-08 6.500946e-09 4.029195e-10 1.995701e-10 -5.470380e-11
1.240388e-08 -3.565422e-08 6.824346e-09 -9.253201e-10 3.691442e-10 -2.790384e-10
1.265666e-08 -3.676885e-08 6.339912e-09 -5.892189e-10 -3.274874e-10 -2.346786e-10
1.272603e-08 -3.717904e-08 6.354760e-09 -9.332765e-10 -1.062712e-10 -2.682625e-10
-6.807080e-09 2.629678e-09 1.487217e-09 1.409050e-09 -3.446452e-10 -4.179623e-10
1.253672e-08 -3.840060e-08 6.821408e-09 -9.051668e-10 2.576663e-10 -2.636872e-10
1.310191e-08 -3.830594e-08 6.832494e-09 2.563473e-10 3.953426e-10 -2.593246e-10
-1.653740e-08 6.519580e-09 8.453722e-10 6.341378e-09 2.759804e-09 -1.388674e-09
-1.863429e-08 1.325580e-08 -1.781732e-09 1.053843e-08 5.494984e-09 -4.290226e-09
-1.776464e-08 5.904663e-09 -1.799681e-09 1.087879e-08 4.720266e-09 -1.376329e-09
-1.861582e-08 1.208940e-08 -4.510304e-09 1.023094e-08 8.213029e-09 -4.814785e-09
-1.595999e-08 1.025257e-08 -2.960365e-09 4.977565e-09 4.489238e-09 -1.537214e-09
-1.472274e-08 7.689138e-10 1.839869e-09 -1.941030e-09 -1.171276e-09 -2.426845e-10
4.283636e-08 -6.014973e-09 -8.290129e-08 -3.849397e-09 3.690597e-08 2.808935e-09
-1.299976e-08 -1.750831e-10 1.432231e-09 -1.875346e-09 -2.614272e-09 -5.472529e-10
6.512870e-10 -2.706046e-08 5.173440e-09 8.080446e-09 1.829969e-09 5.499812e-10
-1.590007e-08 1.145118e-09 2.955595e-09 -1.867318e-09 -5.262728e-10 -5.263884e-10
-1.548241e-08 8.286385e-10 2.800848e-09 -7.200276e-10 -1.255771e-10 -7.086760e-10
2.284925e-09 -2.376869e-08 2.244053e-09 4.419377e-09 -2.510710e-09 1.649793e-10
1.985708e-09 -2.266701e-08 5.087840e-09 3.070816e-09 -2.354390e-09 -3.778883e-10
-6.799069e-09 3.085316e-09 1.254808e-09 1.673010e-09 4.516044e-10 -4.198553e-10
4.028405e-09 -2.700030e-08 5.599705e-09 7.709331e-09 -1.804167e-09 5.062086e-10
5.232894e-09 -2.595159e-08 3.128329e-09 8.750289e-10 -2.567697e-10 3.590435e-10
3.841950e-09 -2.655446e-08 1.191491e-09 8.026758e-09 -4.369188e-09 1.491536e-09
-1.391464e-08 1.567757e-08 -3.368277e-09 9.943126e-10 4.445241e-09 -2.448902e-09
-1.705074e-08 1.172395e-08 -5.525240e-10 8.248927e-09 5.725022e-09 -2.873028e-09
-1.640927e-08 1.174756e-08 2.026468e-10 4.590276e-09 3.740713e-09 -2.002442e-09
-1.731632e-08 9.734735e-09 7.911205e-10 9.029126e-09 5.442659e-09 -2.685138e-09
-7.391332e-09 1.436793e-08 -2.516294e-09 -8.203119e-10 3.460565e-09 -1.927028e-09
-1.670413e-08 1.479187e-08 -7.940075e-10 4.671316e-09 5.298756e-09 -4.143819e-09
-1.066167e-08 1.747537e-08 -5.693335e-09 -3.118893e-09 5.852557e-09 -3.953629e-09
-1.676448e-08 1.479101e-08 -3.427856e-09 4.697215e-09 5.250645e-09 -2.926019e-09
-9.908266e-09 1.952937e-08 -7.545333e-09 -2.720612e-10 6.910981e-09 -5.253099e-09
-1.175051e-08 1.577088e-08 -4.787065e-09 5.350797e-10 4.627524e-09 -2.269427e-09
-6.999538e-10 1.481608e-08 -5.923882e-09 -5.591363e-09 3.132519e-09 -1.676311e-09
-1.696042e-08 3.503685e-09 2.227935e-09 1.035543e-08 5.851040e-09 -1.918639e-09
-1.768303e-08 6.866999e-09 -1.082055e-09 6.867636e-09 4.940482e-09 -1.363346e-09
-1.732094e-08 1.039135e-08 -1.263947e-09 9.176441e-09 5.399093e-09 -1.590077e-09
-1.688863e-08 1.164671e-08 -1.231749e-09 4.123317e-09 4.723956e-09 -1.153537e-09
-1.488137e-08 1.405895e-08 -4.465297e-09 6.513600e-09 6.129497e-09 -4.770971e-09
-1.894928e-08 1.191370e-08 1.523597e-09 9.633394e-09 4.171052e-09 -2.906241e-09
-1.698856e-08 5.356183e-09 -1.880069e-10 1.025525e-08 6.251792e-09 -2.602046e-09
-1.775886e-08 3.757028e-09 2.079639e-09 1.124341e-08 4.717328e-09 -1.373380e-09
-7.555950e-09 5.082884e-09 8.872751e-10 -1.480234e-10 -2.928613e-11 -4.301204e-11
-7.153941e-09 5.003725e-09 6.877001e-10 -2.751856e-10 -4.810174e-11 3.236633e-11
-7.353059e-09 4.816957e-09 7.588561e-10 -5.596195e-10 -1.344302e-11 2.127010e-11
-7.200479e-09 4.965514e-09 7.598202e-10 -2.991296e-10 -4.882406e-11 -1.549505e-11
-7.215197e-09 4.991419e-09 8.368612e-10 -4.136789e-10 -4.175787e-11 -1.355621e-10
-7.440759e-09 1.507471e-09 2.051454e-09 -6.725525e-10 3.848624e-10 -4.174990e-11
-7.431916e-09 5.085543e-09 7.653824e-10 -8.383949e-11 1.080558e-11 -9.274967e-11
-3.880668e-09 2.327988e-09 4.160465e-10 1.815050e-10 1.978364e-10 1.677414e-10
-3.941096e-09 2.024353e-09 4.881651e-10 7.460468e-10 3.809641e-11 -1.031228e-10
-3.490404e-09 2.118839e-09 3.325891e-10 3.220075e-10 3.346108e-10 2.198688e-11
2.431268e-08 1.933729e-08 -8.925328e-08 -1.196103e-08 1.414087e-08 2.187715e-09
-3.300133e-09 2.139589e-09 3.283591e-10 4.877948e-10 3.391016e-10 -1.894895e-11
-3.399778e-09 2.383143e-09 3.102421e-10 4.256535e-10 -2.779888e-12 -2.104183e-11
-3.789731e-09 2.377889e-09 4.043521e-10 2.296772e-10 4.160761e-11 -1.671168e-10
-7.261659e-09 -4.713403e-09 2.257886e-09 3.279370e-09 -1.384900e-09 -4.079670e-11
-6.510555e-09 -6.787197e-09 2.559999e-09 5.604469e-09 -2.501980e-09 7.316288e-10
-6.908133e-09 -5.460160e-09 2.071836e-09 3.096411e-09 -4.037481e-09 2.224735e-10
8.153281e-09 -3.966452e-09 -1.189127e-09 -1.528391e-09 -2.581426e-10 1.822453e-10
7.568474e-09 -3.556469e-09 -1.042227e-09 -2.873754e-09 -2.449956e-10 3.429654e-10
6.140646e-09 -3.604996e-09 -1.033884e-09 -2.578783e-09 -1.496403e-10 3.068057e-11
8.263016e-09 -4.457426e-09 -1.199824e-09 -1.516558e-09 -2.928080e-11 2.794933e-10
1.103401e-08 -3.505556e-08 6.251604e-09 -2.245080e-09 -3.285657e-10 -2.172975e-10
1.086271e-08 -3.532980e-08 6.217444e-09 -1.600282e-09 7.722940e-10 -3.773533e-10
1.218901e-08 -3.514260e-08 6.557633e-09 -8.235250e-10 5.004164e-10 -5.243029e-10
1.087035e-08 -3.147952e-08 6.829188e-09 -1.787560e-09 -7.629072e-10 -3.019364e-10
1.216028e-08 -3.653003e-08 6.803201e-09 -6.591762e-10 -1.462496e-10 -3.850061e-10
1.106191e-08 -3.513221e-08 6.698845e-09 -4.583994e-11 2.458697e-10 -3.936889e-10
-7.250090e-09 3.458990e-09 1.112793e-09 4.709593e-10 2.370459e-11 -1.129955e-10
-7.429255e-09 3.587333e-09 1.233219e-09 2.032818e-10 -1.426481e-11 -5.696077e-11
-1.706362e-08 1.388032e-08 -3.872985e-09 -2.810123e-09 -5.074893e-09 -1.713899e-09
6.253794e-08 -8.556323e-09 6.104846e-09 2.729364e-08 7.744890e-09 1.782479e-08
-1.585814e-08 1.201342e-08 -4.234369e-09 -3.941698e-09 -4.446192e-09 -1.086530e-09
-7.440758e-09 1.724931e-10 2.135401e-09 -1.143536e-09 -2.108296e-10 -4.929855e-10
-1.546844e-08 1.056884e-08 -5.935256e-09 -6.178971e-09 -6.769154e-09 -3.474477e-09
-1.511706e-08 6.801621e-09 -6.221705e-09 -6.436615e-09 -5.468284e-09 -3.140444e-09
1.120427e-08 -3.631936e-08 7.574249e-09 2.020050e-09 4.142349e-10 2.368356e-10
1.230485e-08 -3.843124e-08 7.085375e-09 2.667339e-09 1.877119e-10 6.404414e-11
9.646749e-09 -3.542639e-08 7.207579e-09 4.339575e-09 -4.794896e-10 3.171297e-10
3.985727e-08 -7.074432e-09 3.051089e-10 8.205756e-09 -1.640223e-09 7.122708e-09
1.231944e-08 -3.696164e-08 6.912424e-09 2.504589e-09 1.001265e-09 2.020562e-11
-2.354601e-09 1.957524e-09 2.043428e-10 1.090272e-09 2.521339e-10 -2.685485e-11
-3.588612e-09 2.018502e-09 4.513652e-10 1.598687e-09 1.146955e-10 4.567613e-11
-8.310095e-09 1.889507e-09 1.488028e-09 -1.007228e-09 -1.306943e-10 1.430465e-10
-3.641687e-09 2.400870e-09 4.784209e-10 6.249889e-10 1.339251e-10 -1.943123e-10
-3.305367e-09 2.199750e-09 3.867888e-10 5.445945e-10 7.964641e-11 -1.405831e-11
-1.676982e-08 -1.648675e-09 1.958011e-09 8.631190e-09 4.399652e-09 -1.441380e-09
-1.548442e-08 6.025230e-09 -1.706600e-09 1.182360e-08 4.603570e-09 -1.971735e-09
-1.439065e-08 4.390976e-10 2.626383e-09 8.012149e-09 3.282533e-09 -4.600093e-10
-1.428646e-08 -5.442855e-09 3.282560e-09 8.097909e-09 6.339427e-10 -1.156608e-09
-1.513795e-08 -3.603265e-09 1.322731e-09 1.113760e-08 3.769442e-09 -1.041003e-09
-1.705015e-08 3.335197e-09 -8.216923e-10 7.227368e-09 3.896360e-09 -9.969599e-10
-1.654261e-08 1.814001e-09 -7.096497e-10 7.265344e-09 3.471587e-09 -6.438874e-10
-5.598555e-09 3.016437e-09 7.389140e-10 1.200104e-09 1.726854e-10 -1.948095e-10
-5.745926e-09 3.047633e-09 9.788488e-10 1.302839e-09 3.156019e-10 -1.730014e-10
-5.468415e-09 3.157347e-09 7.545331e-10 8.133316e-10 8.599443e-11 -1.554727e-10
-5.921226e-09 3.095842e-09 7.658754e-10 6.440491e-10 3.204570e-11 -2.762332e-10
-5.134988e-09 2.739817e-09 7.269914e-10 1.094056e-09 1.016692e-10 -7.960416e-11
-5.235022e-09 2.969230e-09 7.506151e-10 1.273878e-09 -1.211498e-11 -7.987235e-11
-6.088488e-09 3.282603e-09 7.610446e-10 1.030250e-09 8.608358e-11 -7.939079e-11
-6.086994e-09 3.258515e-09 7.596681e-10 6.009370e-10 8.003220e-11 -2.202897e-10
-6.252922e-09 -3.611132e-09 2.928179e-09 -5.714742e-10 2.401636e-12 -7.366849e-10
-6.467634e-09 -3.067922e-09 2.962935e-09 -1.099756e-09 2.610878e-10 -8.398293e-10
-7.495072e-09 -4.459322e-10 2.348287e-09 -8.531642e-10 -2.383395e-10 -5.166145e-10
-7.224998e-09 -1.503384e-10 2.510204e-09 -6.099299e-10 -8.659295e-11 -4.218568e-10
-6.889188e-09 1.908318e-11 2.429320e-09 -8.892070e-10 2.409481e-10 -6.635434e-10
-4.044782e-09 -1.597414e-08 6.283972e-09 7.642776e-09 4.300298e-10 5.327460e-10
-7.380372e-09 4.111913e-09 9.740457e-10 7.142065e-11 5.670442e-11 -2.929912e-11
-4.085955e-09 -1.527947e-08 6.156552e-09 7.506288e-09 7.121677e-10 6.055848e-10
-6.256743e-09 -1.701303e-08 6.226734e-09 5.115136e-09 3.328189e-10 1.392955e-10
-3.904518e-09 -1.789442e-08 6.519558e-09 5.219684e-09 -7.264009e-10 2.482599e-11
-4.562443e-09 -1.740998e-08 6.507693e-09 4.888955e-09 2.443581e-10 6.772156e-10
2.194777e-08 1.233312e-08 -6.900605e-08 -1.576398e-08 -1.503970e-08 -1.327556e-09
2.627450e-08 6.735077e-09 -7.319983e-08 -1.110759e-08 -3.324937e-08 -1.342386e-10
1.628663e-08 4.215795e-08 -8.194721e-08 -1.480469e-08 -1.082279e-08 -2.969678e-09
1.625818e-08 3.558096e-08 -6.561285e-08 -1.161426e-08 -1.969799e-08 -5.380020e-09
1.035670e-08 -3.250080e-08 1.796470e-10 -3.908320e-09 -2.434537e-09 -4.247025e-10
9.934581e-09 -3.452966e-08 -1.111037e-09 -5.717961e-09 -6.534159e-09 -1.194170e-09
1.034467e-08 -3.645926e-08 7.300893e-10 -4.195657e-09 -2.265940e-09 -4.826207e-10
9.727893e-09 -2.989282e-08 1.056688e-10 -2.947842e-09 -2.201512e-09 -6.440779e-10
1.333200e-08 -3.798207e-08 6.137935e-10 -2.767677e-09 -3.043878e-09 -8.559529e-10
9.554509e-09 -2.280664e-08 -1.383593e-08 -1.231289e-08 -4.924680e-09 -2.437263e-09
1.517311e-08 -1.988745e-08 -2.104391e-08 -1.614819e-08 -2.803857e-09 -2.723675e-09
1.522265e-08 -2.050750e-08 -2.002895e-08 -1.652036e-08 -1.320687e-08 -2.046029e-09
1.886416e-08 -3.441344e-08 -1.887232e-08 -1.081616e-08 -1.270825e-08 -1.086352e-09
1.736321e-08 -2.319233e-08 -2.092203e-08 -1.332832e-08 -1.030728e-08 -1.848314e-09
-7.198868e-09 3.374878e-09 1.176802e-09 4.398832e-10 1.271301e-10 -2.726381e-10
-6.907741e-09 2.936781e-09 1.179789e-09 6.928689e-10 9.912504e-11 -1.794735e-10
3.674404e-09 3.165822e-09 -4.102701e-08 -2.570154e-08 1.728072e-08 1.156512e-08
5.081460e-09 -2.694180e-09 -8.326504e-10 -7.747245e-10 -8.713408e-11 -6.922662e-11
1.572284e-08 -6.415210e-09 -3.901218e-08 -2.404395e-08 1.573468e-08 6.547638e-09
2.510240e-08 1.581710e-08 -7.545609e-08 -1.524899e-08 1.348400e-08 8.905011e-09