# vtk DataFile Version 2.0
Simplicial Mesh Example
ASCII
DATASET UNSTRUCTURED_GRID
POINTS 955 double
1.739130e+04 -4.000000e+05 0.000000e+00
3.431474e+04 -3.668361e+05 0.000000e+00
5.217391e+04 -4.000000e+05 0.000000e+00
-3.668348e+05 1.033122e+05 0.000000e+00
3.693733e+05 -3.529960e+05 0.000000e+00
-4.000000e+05 8.695652e+04 0.000000e+00
-2.962358e+05 -3.323448e+05 0.000000e+00
-3.357456e+05 -3.422369e+05 0.000000e+00
-2.772919e+05 -3.669732e+05 0.000000e+00
3.335574e+05 -1.858748e+05 0.000000e+00
3.000000e+05 -1.659466e+05 0.000000e+00
-1.716829e+05 -3.668361e+05 0.000000e+00
-1.913043e+05 -4.000000e+05 0.000000e+00
2.061857e+05 3.668333e+05 0.000000e+00
1.565217e+05 4.000000e+05 0.000000e+00
1.716839e+05 3.668365e+05 0.000000e+00
1.913043e+05 4.000000e+05 0.000000e+00
-8.695652e+04 4.000000e+05 0.000000e+00
-6.863978e+04 3.668364e+05 0.000000e+00
8.695652e+04 -4.000000e+05 0.000000e+00
6.864043e+04 -3.668360e+05 0.000000e+00
-1.217391e+05 -4.000000e+05 0.000000e+00
-1.373218e+05 -3.668365e+05 0.000000e+00
-1.565217e+05 -4.000000e+05 0.000000e+00
-3.668349e+05 1.375908e+05 0.000000e+00
-4.000000e+05 1.565217e+05 0.000000e+00
3.668265e+05 -1.714683e+05 0.000000e+00
4.000000e+05 -1.913043e+05 0.000000e+00
4.000000e+05 -1.565217e+05 0.000000e+00
4.000000e+05 1.565217e+05 0.000000e+00
3.668383e+05 1.722952e+05 0.000000e+00
4.000000e+05 -8.695652e+04 0.000000e+00
3.668372e+05 -1.026508e+05 0.000000e+00
4.000000e+05 -5.217391e+04 0.000000e+00
3.668380e+05 -6.826645e+04 0.000000e+00
-1.666667e+05 -3.000000e+05 0.000000e+00
3.334882e+05 -2.202831e+05 0.000000e+00
3.000000e+05 -1.994599e+05 0.000000e+00
-1.862587e+05 -3.335758e+05 0.000000e+00
-5.217391e+04 4.000000e+05 0.000000e+00
-1.739130e+04 4.000000e+05 0.000000e+00
-3.431405e+04 3.668365e+05 0.000000e+00
-1.716148e+05 3.668263e+05 0.000000e+00
-1.913043e+05 4.000000e+05 0.000000e+00
-2.059314e+05 3.667832e+05 0.000000e+00
3.316724e+05 -2.967750e+05 0.000000e+00
3.666108e+05 -2.775848e+05 0.000000e+00
3.397681e+05 -3.369212e+05 0.000000e+00
-3.335738e+05 1.866432e+05 0.000000e+00
-3.000000e+05 1.673499e+05 0.000000e+00
-3.000000e+05 2.005124e+05 0.000000e+00
-3.335722e+05 1.528704e+05 0.000000e+00
2.962288e+05 3.323792e+05 0.000000e+00
2.772894e+05 3.669850e+05 0.000000e+00
3.357389e+05 3.423035e+05 0.000000e+00
-3.422611e+05 3.357632e+05 0.000000e+00
-3.323575e+05 2.962961e+05 0.000000e+00
-3.669772e+05 2.773495e+05 0.000000e+00
-3.000000e+05 1.341874e+05 0.000000e+00
-3.335717e+05 1.191216e+05 0.000000e+00
3.668370e+05 3.487991e+04 0.000000e+00
3.668382e+05 4.985393e+02 0.000000e+00
4.000000e+05 1.739130e+04 0.000000e+00
3.335703e+05 -1.518628e+05 0.000000e+00
3.335746e+05 -1.178848e+05 0.000000e+00
3.000000e+05 -1.324332e+05 0.000000e+00
-1.185180e+05 -3.335740e+05 0.000000e+00
-1.333333e+05 -3.000000e+05 0.000000e+00
-1.000000e+05 -3.000000e+05 0.000000e+00
4.000000e+05 8.695652e+04 0.000000e+00
3.668311e+05 6.925743e+04 0.000000e+00
-6.666667e+04 -3.000000e+05 0.000000e+00
-8.466381e+04 -3.335739e+05 0.000000e+00
-5.081027e+04 -3.335738e+05 0.000000e+00
-1.092350e+01 -3.668362e+05 0.000000e+00
-1.523098e+05 3.335679e+05 0.000000e+00
-1.666667e+05 3.000000e+05 0.000000e+00
-1.861609e+05 3.335431e+05 0.000000e+00
-1.184568e+05 3.335728e+05 0.000000e+00
-1.333333e+05 3.000000e+05 0.000000e+00
-3.668344e+05 6.903915e+04 0.000000e+00
-4.000000e+05 5.217391e+04 0.000000e+00
-3.668332e+05 3.476756e+04 0.000000e+00
3.667880e+05 2.064991e+05 0.000000e+00
4.000000e+05 1.913043e+05 0.000000e+00
4.000000e+05 2.260870e+05 0.000000e+00
3.668383e+05 -3.388371e+04 0.000000e+00
1.695789e+04 3.335742e+05 0.000000e+00
3.333333e+04 3.000000e+05 0.000000e+00
5.081153e+04 3.335742e+05 0.000000e+00
-6.866241e+04 -3.668363e+05 0.000000e+00
-5.217391e+04 -4.000000e+05 0.000000e+00
-3.433659e+04 -3.668363e+05 0.000000e+00
8.466523e+04 3.335742e+05 0.000000e+00
6.666667e+04 3.000000e+05 0.000000e+00
-3.650927e+05 -2.750990e+05 0.000000e+00
1.373228e+05 3.668367e+05 0.000000e+00
-1.029893e+05 -3.668364e+05 0.000000e+00
-2.061853e+05 -3.668319e+05 0.000000e+00
3.679246e+05 -3.150758e+05 0.000000e+00
4.000000e+05 -2.956522e+05 0.000000e+00
-3.668488e+05 -6.807684e+04 0.000000e+00
-3.668495e+05 -1.024032e+05 0.000000e+00
-3.777286e+05 3.768122e+05 0.000000e+00
-3.731516e+05 3.486385e+05 0.000000e+00
8.460407e+04 -3.335732e+05 0.000000e+00
1.000000e+05 -3.000000e+05 0.000000e+00
1.184575e+05 -3.335722e+05 0.000000e+00
-4.000000e+05 -2.608696e+05 0.000000e+00
-3.668282e+05 4.980022e+02 0.000000e+00
3.000000e+05 1.620150e+03 0.000000e+00
1.523100e+05 -3.335678e+05 0.000000e+00
1.666667e+05 -3.000000e+05 0.000000e+00
1.861576e+05 -3.335456e+05 0.000000e+00
-2.411432e+05 -3.668207e+05 0.000000e+00
-2.260870e+05 -4.000000e+05 0.000000e+00
-3.328022e+05 -2.535374e+05 0.000000e+00
2.260870e+05 4.000000e+05 0.000000e+00
3.335746e+05 5.195984e+04 0.000000e+00
3.000000e+05 6.864685e+04 0.000000e+00
3.000000e+05 3.513350e+04 0.000000e+00
3.335698e+05 8.592243e+04 0.000000e+00
4.000000e+05 -1.217391e+05 0.000000e+00
3.335767e+05 -1.597580e+04 0.000000e+00
3.000000e+05 -3.189320e+04 0.000000e+00
4.000000e+05 -1.739130e+04 0.000000e+00
-3.335594e+05 2.207671e+05 0.000000e+00
-3.246449e+05 -3.150201e+05 0.000000e+00
-3.608008e+05 -3.135540e+05 0.000000e+00
-3.306775e+05 -2.872043e+05 0.000000e+00
-2.333333e+05 -3.000000e+05 0.000000e+00
-2.558329e+05 -3.333551e+05 0.000000e+00
-2.204932e+05 -3.335596e+05 0.000000e+00
-2.000000e+05 -3.000000e+05 0.000000e+00
1.333333e+05 -3.000000e+05 0.000000e+00
-3.000000e+05 -2.326501e+05 0.000000e+00
-3.334238e+05 -2.194600e+05 0.000000e+00
3.667086e+05 -2.411486e+05 0.000000e+00
3.331504e+05 -2.559007e+05 0.000000e+00
2.000000e+05 3.000000e+05 0.000000e+00
1.862602e+05 3.335762e+05 0.000000e+00
2.204925e+05 3.335627e+05 0.000000e+00
2.000000e+05 -3.000000e+05 0.000000e+00
3.000000e+05 2.018902e+05 0.000000e+00
3.334338e+05 2.210121e+05 0.000000e+00
-4.000000e+05 -2.260870e+05 0.000000e+00
-3.664180e+05 -2.401224e+05 0.000000e+00
-3.667926e+05 -2.056104e+05 0.000000e+00
-3.668215e+05 2.412511e+05 0.000000e+00
-4.000000e+05 2.260870e+05 0.000000e+00
3.000000e+05 3.000000e+05 0.000000e+00
3.306623e+05 2.876205e+05 0.000000e+00
-5.074947e+04 3.335740e+05 0.000000e+00
-6.666667e+04 3.000000e+05 0.000000e+00
-8.460317e+04 3.335738e+05 0.000000e+00
-4.000000e+05 -1.565217e+05 0.000000e+00
-3.668386e+05 -1.711937e+05 0.000000e+00
-3.668436e+05 -1.367793e+05 0.000000e+00
3.336147e+05 1.538073e+05 0.000000e+00
2.260870e+05 -4.000000e+05 0.000000e+00
2.059253e+05 -3.667880e+05 0.000000e+00
2.402710e+05 -3.664674e+05 0.000000e+00
4.000000e+05 1.217391e+05 0.000000e+00
3.668342e+05 1.036336e+05 0.000000e+00
1.029661e+05 -3.668356e+05 0.000000e+00
1.217391e+05 -4.000000e+05 0.000000e+00
1.372913e+05 -3.668342e+05 0.000000e+00
4.000000e+05 2.956522e+05 0.000000e+00
3.650890e+05 2.754572e+05 0.000000e+00
3.607920e+05 3.136982e+05 0.000000e+00
-3.691108e+05 3.139776e+05 0.000000e+00
-4.000000e+05 2.956522e+05 0.000000e+00
-4.000000e+05 1.217391e+05 0.000000e+00
3.668347e+05 -1.370424e+05 0.000000e+00
3.667968e+05 -2.060541e+05 0.000000e+00
1.565217e+05 -4.000000e+05 0.000000e+00
-8.695652e+04 -4.000000e+05 0.000000e+00
3.000000e+05 1.021602e+05 0.000000e+00
3.335748e+05 1.198782e+05 0.000000e+00
3.433740e+04 3.668366e+05 0.000000e+00
1.739130e+04 4.000000e+05 0.000000e+00
1.166851e+01 3.668366e+05 0.000000e+00
1.185195e+05 3.335744e+05 0.000000e+00
1.333333e+05 3.000000e+05 0.000000e+00
1.523779e+05 3.335748e+05 0.000000e+00
1.666667e+05 3.000000e+05 0.000000e+00
4.000000e+05 -2.608696e+05 0.000000e+00
-3.333333e+04 -3.000000e+05 0.000000e+00
-1.695675e+04 -3.335737e+05 0.000000e+00
-3.702024e+05 -3.502584e+05 0.000000e+00
-4.000000e+05 -3.304348e+05 0.000000e+00
5.075044e+04 -3.335735e+05 0.000000e+00
3.335765e+05 -4.994471e+04 0.000000e+00
3.000000e+05 -6.540655e+04 0.000000e+00
3.335760e+05 -8.391401e+04 0.000000e+00
1.029903e+05 3.668367e+05 0.000000e+00
8.695652e+04 4.000000e+05 0.000000e+00
6.866331e+04 3.668366e+05 0.000000e+00
-3.335741e+05 -1.854110e+05 0.000000e+00
-3.335907e+05 -1.513473e+05 0.000000e+00
1.217391e+05 4.000000e+05 0.000000e+00
-1.029655e+05 3.668361e+05 0.000000e+00
-1.217391e+05 4.000000e+05 0.000000e+00
-1.372909e+05 3.668345e+05 0.000000e+00
-3.333582e+05 2.559979e+05 0.000000e+00
-1.565217e+05 4.000000e+05 0.000000e+00
-3.333333e+04 3.000000e+05 0.000000e+00
-1.689577e+04 3.335741e+05 0.000000e+00
4.000000e+05 -2.260870e+05 0.000000e+00
4.000000e+05 5.217391e+04 0.000000e+00
-3.000000e+05 -3.000000e+05 0.000000e+00
-2.666667e+05 -3.000000e+05 0.000000e+00
2.749236e+05 -3.652724e+05 0.000000e+00
2.956522e+05 -4.000000e+05 0.000000e+00
-2.260870e+05 4.000000e+05 0.000000e+00
3.246361e+05 3.151522e+05 0.000000e+00
-2.956522e+05 -4.000000e+05 0.000000e+00
-3.139562e+05 -3.691022e+05 0.000000e+00
-3.335708e+05 5.163284e+04 0.000000e+00
-3.000000e+05 6.786232e+04 0.000000e+00
-3.335713e+05 8.537688e+04 0.000000e+00
-3.502741e+05 3.702051e+05 0.000000e+00
-3.000000e+05 -1.653002e+05 0.000000e+00
3.139513e+05 3.691251e+05 0.000000e+00
2.956522e+05 4.000000e+05 0.000000e+00
3.668475e+05 1.379968e+05 0.000000e+00
1.716142e+05 -3.668268e+05 0.000000e+00
4.000000e+05 -3.652174e+05 0.000000e+00
4.000000e+05 -4.000000e+05 0.000000e+00
1.913043e+05 -4.000000e+05 0.000000e+00
-2.200076e+05 3.334178e+05 0.000000e+00
-2.000000e+05 3.000000e+05 0.000000e+00
3.486284e+05 3.731663e+05 0.000000e+00
3.701971e+05 3.502998e+05 0.000000e+00
-3.668327e+05 -3.377970e+04 0.000000e+00
3.000000e+05 1.356736e+05 0.000000e+00
-1.523763e+05 -3.335744e+05 0.000000e+00
-2.873505e+05 3.306746e+05 0.000000e+00
-3.000000e+05 3.000000e+05 0.000000e+00
3.000000e+05 -9.891990e+04 0.000000e+00
-4.000000e+05 -2.956522e+05 0.000000e+00
-2.956522e+05 4.000000e+05 0.000000e+00
-2.752247e+05 3.650898e+05 0.000000e+00
-3.136055e+05 3.608027e+05 0.000000e+00
-3.000000e+05 -2.663251e+05 0.000000e+00
-3.000000e+05 1.010248e+05 0.000000e+00
-3.000000e+05 2.336749e+05 0.000000e+00
[...]
POINT_DATA 955
VECTORS displacement double
2.567663e-03 0.000000e+00 2.393042e-04
2.511313e-03 -3.959920e-04 2.048253e-04
2.502465e-03 0.000000e+00 2.902789e-04
-5.395898e-04 3.384212e-03 -8.059896e-04
1.603218e-04 2.461866e-04 2.467606e-05
0.000000e+00 2.841641e-03 -7.752367e-04
-1.314094e-03 -1.001247e-03 -4.004349e-04
-9.400453e-04 -2.603232e-04 -6.524137e-05
-1.281854e-03 -7.013409e-04 -1.121687e-04
-2.299299e-04 6.707925e-04 -9.820460e-05
-4.730818e-04 6.802749e-04 -1.230458e-04
-1.250546e-04 -1.679397e-03 -4.765960e-04
-4.716599e-04 0.000000e+00 -2.172561e-04
1.594396e-03 -6.164769e-05 2.700594e-04
2.025760e-03 0.000000e+00 3.601455e-04
1.877398e-03 -7.613141e-06 3.278556e-04
1.745964e-03 0.000000e+00 2.986993e-04
2.059230e-03 0.000000e+00 9.130852e-04
2.217100e-03 9.496436e-04 8.656964e-04
2.319124e-03 0.000000e+00 2.972298e-04
2.374302e-03 -1.747714e-04 2.480016e-04
9.440437e-04 0.000000e+00 -1.957794e-04
6.130850e-04 -1.717296e-03 -4.382213e-04
2.261302e-04 0.000000e+00 -2.351106e-04
-5.823077e-04 3.535285e-03 -4.740452e-04
0.000000e+00 3.287047e-03 -1.897907e-04
-1.391376e-04 6.214798e-04 -1.064698e-04
0.000000e+00 6.405746e-04 -8.949703e-05
0.000000e+00 5.812559e-04 -1.172998e-04
0.000000e+00 -7.112375e-04 -1.871676e-05
1.069435e-05 -7.105185e-04 -3.483776e-06
0.000000e+00 3.078312e-04 -1.530212e-04
-2.644452e-04 3.913692e-04 -1.504403e-04
0.000000e+00 1.190670e-04 -1.603101e-04
-2.990844e-04 2.136469e-04 -1.610157e-04
-1.713474e-04 -6.263836e-03 -2.449998e-03
-7.700513e-05 6.783556e-04 -6.533849e-05
-2.496150e-04 7.199778e-04 -8.688256e-05
-5.068213e-04 -3.429911e-03 -1.149791e-03
2.356013e-03 0.000000e+00 8.503322e-04
2.555560e-03 0.000000e+00 7.793435e-04
2.460459e-03 7.891820e-04 7.949544e-04
1.050066e-03 1.190653e-03 1.005185e-03
8.499594e-04 0.000000e+00 1.048182e-03
6.485315e-04 1.166266e-03 1.031936e-03
2.337891e-04 5.093085e-04 3.662155e-06
7.566865e-05 5.573230e-04 -1.860624e-05
2.930870e-04 3.313170e-04 2.472594e-05
-9.174766e-04 4.209104e-03 -8.749798e-05
-1.428634e-03 5.681671e-03 -7.342047e-04
-1.089669e-03 5.007925e-03 -1.244828e-04
-1.103202e-03 4.519486e-03 -5.772168e-04
7.862121e-04 -2.693093e-04 1.589357e-04
9.968687e-04 -1.238913e-04 1.870984e-04
4.914005e-04 -2.492411e-04 1.408237e-04
-1.323521e-04 1.543439e-03 1.039226e-03
-2.682232e-04 2.454287e-03 8.981802e-04
-2.116980e-04 2.554449e-03 8.292774e-04
-1.740558e-03 6.410549e-03 -1.444232e-03
-1.185423e-03 4.697870e-03 -1.056035e-03
-2.595932e-04 -3.646913e-04 -1.353714e-04
-2.972992e-04 -1.819791e-04 -1.537886e-04
0.000000e+00 -2.756021e-04 -1.433519e-04
-3.714497e-04 6.026338e-04 -1.275823e-04
-4.946884e-04 4.808745e-04 -1.514384e-04
-6.873151e-04 5.784425e-04 -1.524367e-04
9.952604e-04 -3.559568e-03 -1.033336e-03
6.666344e-04 -6.272792e-03 -2.370041e-03
1.437409e-03 -5.666109e-03 -2.034956e-03
0.000000e+00 -5.806675e-04 -9.185124e-05
-2.069612e-04 -5.166882e-04 -1.084387e-04
1.954501e-03 -4.587421e-03 -1.552870e-03
1.656340e-03 -3.114842e-03 -8.173467e-04
2.118902e-03 -2.460279e-03 -5.462281e-04
2.499706e-03 -6.855502e-04 1.156533e-04
1.204043e-03 2.383006e-03 8.979746e-04
8.646162e-04 3.695561e-03 7.133169e-04
7.733753e-04 2.389155e-03 9.310510e-04
1.636279e-03 2.263269e-03 8.624702e-04
1.330393e-03 3.592409e-03 6.885489e-04
-3.066570e-04 3.073607e-03 -9.208166e-04
0.000000e+00 2.472548e-03 -7.879150e-04
2.042432e-04 2.660766e-03 -7.109558e-04
7.706833e-05 -6.828502e-04 3.366461e-05
0.000000e+00 -7.005955e-04 1.572933e-05
0.000000e+00 -6.519640e-04 4.891252e-05
-3.094295e-04 1.674649e-05 -1.623441e-04
2.554491e-03 1.038167e-03 6.390744e-04
2.432788e-03 1.291519e-03 5.414416e-04
2.508675e-03 7.244371e-04 5.660974e-04
1.911458e-03 -1.345102e-03 -1.889891e-04
2.127485e-03 0.000000e+00 2.833407e-05
2.308993e-03 -1.020110e-03 -2.483564e-05
2.375513e-03 4.493907e-04 4.897605e-04
2.321371e-03 8.426450e-04 4.824280e-04
-5.891732e-04 1.866095e-04 -7.150849e-04
2.138079e-03 6.834737e-05 3.947474e-04
1.324996e-03 -1.599108e-03 -3.387119e-04
-7.376862e-04 -1.455075e-03 -4.118815e-04
1.302696e-04 4.209103e-04 5.711318e-06
0.000000e+00 4.931714e-04 -7.013787e-06
1.304697e-03 1.703297e-03 4.814899e-05
9.488294e-04 1.388891e-03 -2.996821e-04
-3.623289e-05 5.340970e-04 1.087803e-03
-6.343396e-05 1.161939e-03 1.057256e-03
2.085238e-03 -1.744567e-04 1.550828e-04
1.634934e-03 -2.834831e-05 5.511012e-05
1.825090e-03 8.349669e-05 1.784933e-04
0.000000e+00 5.593050e-04 -7.650094e-04
8.621893e-04 2.253080e-03 -2.588830e-04
-9.213878e-04 -1.778742e-04 -1.728563e-04
1.546428e-03 2.408103e-04 1.677775e-04
1.124805e-03 4.271217e-04 9.414589e-05
1.270534e-03 3.256593e-04 1.403011e-04
-1.143606e-03 -1.094816e-03 -2.686051e-04
-9.613494e-04 0.000000e+00 -1.436775e-04
-1.114650e-03 -8.160938e-04 -1.365512e-03
1.455420e-03 0.000000e+00 2.480179e-04
-4.717317e-04 -4.462741e-04 -1.288501e-04
-6.301445e-04 -5.206490e-04 -1.210590e-04
-8.035134e-04 -3.662493e-04 -1.509906e-04
-3.534746e-04 -5.776349e-04 -9.869974e-05
0.000000e+00 4.663944e-04 -1.392560e-04
-6.197055e-04 -8.125289e-05 -1.695058e-04
-9.711171e-04 3.080137e-05 -1.843466e-04
0.000000e+00 -8.156383e-05 -1.572169e-04
-6.947607e-04 3.777997e-03 3.254119e-04
-1.111902e-03 -6.025302e-04 -4.618170e-04
-6.298154e-04 4.668936e-05 -2.536181e-04
-1.110724e-03 -6.633619e-04 -8.400554e-04
-1.419884e-03 -4.283633e-03 -1.878473e-03
-1.357412e-03 -2.027919e-03 -7.183019e-04
-1.069489e-03 -2.817705e-03 -9.900314e-04
-9.431660e-04 -5.531076e-03 -2.286062e-03
1.374209e-03 2.624381e-04 9.259865e-05
-1.654757e-03 -3.078454e-03 -2.405929e-03
-1.037016e-03 -1.014174e-03 -1.735227e-03
2.920871e-06 6.377173e-04 -4.684639e-05
7.372927e-05 6.293876e-04 -3.117919e-05
1.413568e-03 -1.804004e-04 2.393554e-04
1.671973e-03 -7.274691e-05 2.871365e-04
1.394211e-03 -1.612609e-04 2.366397e-04
8.959727e-04 5.073176e-04 7.840036e-05
2.261619e-04 -6.566744e-04 4.392597e-05
2.129782e-04 -6.464217e-04 5.194990e-05
0.000000e+00 7.854719e-04 -1.103613e-03
-5.194633e-04 3.464500e-04 -1.114626e-03
-3.686374e-04 5.265072e-04 -1.348919e-03
-3.082155e-04 3.057085e-03 5.984966e-04
0.000000e+00 3.066703e-03 5.055066e-04
6.692244e-04 -3.873699e-04 1.369509e-04
4.310685e-04 -4.577537e-04 1.136555e-04
2.313200e-03 1.736698e-03 7.679016e-04
2.117367e-03 2.875813e-03 6.522224e-04
2.020619e-03 2.038165e-03 8.207421e-04
0.000000e+00 1.287072e-03 -1.115508e-03
-5.430850e-05 7.703721e-04 -1.270102e-03
4.413863e-04 1.039038e-03 -8.502636e-04
-5.880642e-05 -7.021663e-04 -2.271958e-05
1.159861e-03 0.000000e+00 1.351445e-04
1.276794e-03 1.768399e-04 1.508978e-04
1.003138e-03 1.898022e-04 1.113561e-04
0.000000e+00 -6.701040e-04 -5.758331e-05
-1.384764e-04 -6.288709e-04 -7.555839e-05
2.146248e-03 -1.844014e-05 2.556462e-04
2.058565e-03 0.000000e+00 2.658157e-04
1.866759e-03 8.633088e-05 2.315755e-04
0.000000e+00 -4.491382e-04 1.059038e-04
1.984552e-04 -5.142463e-04 9.516628e-05
2.748956e-04 -3.745286e-04 1.200162e-04
-1.151973e-04 1.882256e-03 9.772380e-04
0.000000e+00 2.161207e-03 9.152887e-04
0.000000e+00 3.137038e-03 -5.436106e-04
-2.080448e-04 5.304374e-04 -1.308336e-04
-6.860326e-05 6.580114e-04 -7.758158e-05
1.759883e-03 0.000000e+00 2.258351e-04
1.613280e-03 0.000000e+00 -9.592911e-05
-4.233134e-04 -6.230824e-04 -8.456521e-05
-2.091471e-04 -6.641223e-04 -6.317607e-05
2.607288e-03 4.471373e-04 6.370590e-04
2.629870e-03 0.000000e+00 6.881659e-04
2.589857e-03 6.128677e-04 7.202478e-04
2.177675e-03 2.259424e-04 4.155388e-04
1.918255e-03 1.848060e-04 3.529407e-04
1.936685e-03 5.342421e-05 3.470584e-04
1.669971e-03 -2.860765e-05 2.923360e-04
0.000000e+00 5.940844e-04 -3.249092e-05
2.207498e-03 -3.340165e-03 -1.021851e-03
2.360629e-03 -1.758276e-03 -2.799599e-04
-4.612449e-04 5.504662e-05 8.564815e-05
0.000000e+00 1.866495e-04 -3.680490e-05
2.291751e-03 -5.582736e-04 8.117163e-05
-6.244623e-04 1.225625e-04 -1.742571e-04
-9.448908e-04 2.399069e-04 -1.848766e-04
-5.823296e-04 3.158822e-04 -1.681561e-04
2.360652e-03 1.693269e-04 4.704339e-04
2.471807e-03 0.000000e+00 5.152894e-04
2.524351e-03 2.962439e-04 5.525676e-04
-6.214421e-04 -9.062044e-04 -1.674912e-03
1.151164e-04 -6.084519e-04 -1.134816e-03
2.273695e-03 0.000000e+00 4.340444e-04
1.876601e-03 1.076338e-03 9.221067e-04
1.680691e-03 0.000000e+00 9.726524e-04
1.473719e-03 1.161582e-03 9.679189e-04
-4.798788e-04 3.244701e-03 6.425367e-04
1.260442e-03 0.000000e+00 1.012925e-03
2.346135e-03 2.355241e-03 6.284019e-04
2.492586e-03 1.397315e-03 7.079468e-04
0.000000e+00 6.443305e-04 -6.241431e-05
0.000000e+00 -4.458992e-04 -1.214672e-04
-1.394890e-03 -1.571014e-03 -9.610516e-04
-1.542034e-03 -2.810711e-03 -1.373004e-03
7.476801e-04 1.972349e-04 7.758139e-05
6.392897e-04 0.000000e+00 6.684419e-05
4.851418e-04 0.000000e+00 1.074961e-03
5.336718e-04 -3.523750e-04 1.327763e-04
-1.198389e-03 0.000000e+00 8.733594e-05
-1.104544e-03 -2.944180e-04 5.947280e-05
-5.329603e-04 4.661145e-03 -1.220249e-03
-1.639492e-03 7.657557e-03 -2.147249e-03
-1.019469e-03 4.754457e-03 -1.307216e-03
-6.709232e-05 7.118489e-04 1.081717e-03
-1.071960e-03 -4.255087e-03 -2.083291e-03
6.953516e-04 -1.296670e-04 1.604691e-04
8.620380e-04 0.000000e+00 1.757873e-04
-6.423562e-05 -6.932914e-04 -3.998533e-05
1.569256e-03 1.466931e-04 1.931995e-04
0.000000e+00 1.824831e-04 2.387053e-05
0.000000e+00 0.000000e+00 2.789232e-05
1.453691e-03 0.000000e+00 1.795922e-04
3.928135e-04 2.294638e-03 9.615189e-04
4.260967e-04 3.615306e-03 7.496238e-04
4.131856e-04 -1.193321e-04 1.449926e-04
2.310397e-04 -2.220938e-04 1.340163e-04
1.222240e-03 1.987352e-03 3.160065e-05
-2.004132e-04 -6.794844e-04 -4.262746e-05
2.319209e-04 -3.676369e-03 -1.141425e-03
-8.699059e-05 1.968941e-03 9.960395e-04
-2.658537e-04 2.696691e-03 8.751349e-04
-8.486550e-04 4.271961e-04 -1.727808e-04
0.000000e+00 3.653440e-04 -3.736332e-04
2.738267e-05 0.000000e+00 1.094895e-03
8.142257e-05 1.045098e-03 1.066435e-03
-5.977082e-05 1.034313e-03 1.071492e-03
-1.571221e-03 -2.224637e-03 -1.691192e-03
-1.877844e-03 7.160628e-03 -2.025969e-03
-7.707699e-04 4.282307e-03 3.334016e-04
2.512043e-03 1.037322e-03 1.117744e-03
1.356101e-03 1.665175e-04 1.480913e-05
2.023359e-04 0.000000e+00 3.393584e-05
2.815181e-03 2.144352e-03 1.314900e-03
4.860426e-03 1.315024e-03 4.205024e-03
-4.129168e-05 0.000000e+00 1.093472e-03
4.175474e-03 4.157054e-03 3.120760e-03
2.130747e-03 3.120453e-03 6.313585e-04
1.299548e-03 -9.833003e-05 2.237773e-04
3.977542e-04 3.940519e-04 3.028029e-05
3.189958e-04 1.595818e-04 3.444692e-05
4.978837e-04 2.127105e-04 4.853653e-05
-5.156659e-04 3.514344e-03 6.571618e-04
0.000000e+00 2.686617e-03 7.496780e-04
-1.682775e-03 -4.078455e-03 -2.733128e-03
1.389081e-04 -6.154646e-04 6.667607e-05
0.000000e+00 -5.653409e-04 8.040943e-05
3.272585e-04 -5.653239e-04 8.581486e-05
8.884113e-04 0.000000e+00 9.724140e-05
5.638741e-04 3.768615e-04 4.859104e-05
7.759377e-04 3.719565e-04 7.550642e-05
5.165251e-04 5.290179e-04 3.663089e-05
6.907233e-04 5.250241e-04 5.621903e-05
1.010393e-03 3.609375e-04 1.060840e-04
9.612243e-05 2.137328e-03 9.782785e-04
1.895234e-04 6.290827e-04 -1.609458e-05
-2.278195e-05 6.974950e-04 -5.057207e-05
-5.283738e-04 3.550058e-03 -8.123010e-05
-4.275118e-04 3.391413e-03 2.906651e-04
9.119611e-04 -3.494330e-04 1.645531e-04
1.104940e-03 -2.214302e-04 1.952594e-04
1.155350e-03 -2.818970e-04 1.954963e-04
-1.209457e-03 0.000000e+00 -2.084108e-05
0.000000e+00 3.266441e-03 1.840930e-04
-1.665328e-04 3.054097e-03 8.428716e-04
7.589386e-05 3.395715e-03 7.931433e-04
-5.695575e-04 -2.772000e-04 -1.547664e-04
5.534422e-04 -4.994250e-04 1.097453e-04
4.061849e-04 -5.866600e-04 7.968645e-05
0.000000e+00 1.503686e-03 -7.652510e-04
2.078318e-04 0.000000e+00 1.089437e-03
-1.740960e-04 1.943806e-03 9.959627e-04
1.158924e-03 0.000000e+00 2.080332e-04
1.548548e-03 6.390973e-03 5.381455e-04
7.752415e-04 3.956992e-03 -3.955340e-04
-5.742773e-04 7.592095e-03 -1.230588e-03
2.142103e-03 4.733245e-04 4.182292e-04
3.143212e-04 1.110149e-03 1.052492e-03
2.446721e-03 1.809004e-03 5.927123e-04
4.109084e-04 0.000000e+00 4.453592e-05
1.769082e-03 3.309644e-03 6.699199e-04
1.888822e-03 -4.980274e-04 -4.743817e-05
2.401354e-03 -1.078620e-03 -5.869735e-05
0.000000e+00 0.000000e+00 2.797574e-04
0.000000e+00 1.034013e-04 2.019224e-04
-3.627271e-04 2.158782e-05 2.327996e-04
2.242957e-03 -2.164212e-03 -5.690762e-04
8.427112e-05 -6.952009e-04 1.609244e-05
0.000000e+00 1.510245e-03 1.021368e-03
-7.450710e-04 -6.238752e-05 1.698653e-04
-9.246105e-04 0.000000e+00 1.844218e-04
0.000000e+00 7.786485e-04 1.075545e-03
1.867935e-04 -1.009096e-04 1.387754e-04
5.686171e-04 0.000000e+00 1.548269e-04
0.000000e+00 2.127577e-03 -5.852670e-04
0.000000e+00 1.690425e-03 -4.091178e-04
0.000000e+00 1.796838e-03 -2.550174e-04
0.000000e+00 1.033433e-03 -1.244708e-03
0.000000e+00 3.484191e-04 1.192582e-05
2.596877e-03 0.000000e+00 6.015617e-04
2.444736e-03 0.000000e+00 1.538108e-04
0.000000e+00 -3.077799e-04 1.241468e-04
0.000000e+00 1.917583e-03 -3.740004e-04
-5.156609e-04 0.000000e+00 2.478715e-04
0.000000e+00 0.000000e+00 1.091018e-03
2.835789e-04 0.000000e+00 1.425763e-04
2.108692e-03 -1.195699e-03 -2.464028e-04
0.000000e+00 -1.580584e-04 1.351854e-04
0.000000e+00 0.000000e+00 1.389308e-04
-4.303527e-05 0.000000e+00 1.091788e-03
3.622922e-04 5.056029e-04 1.591779e-05
1.327687e-03 -2.559696e-03 1.258167e-03
5.243197e-04 -3.530150e-03 -1.765536e-04
1.897745e-03 -7.006084e-04 1.073189e-03
-2.410039e-05 -6.984356e-04 -1.129553e-05
5.759050e-05 -6.917467e-04 8.431625e-06
3.830155e-03 9.799993e-05 3.617673e-03
2.644117e-03 3.973601e-05 1.815905e-03
1.270904e-04 -6.749710e-04 2.306670e-05
-8.823029e-05 -6.887149e-04 -2.083037e-05
2.165332e-03 -1.107032e-03 1.720789e-03
1.835317e-03 -2.105977e-03 1.893875e-03
2.397697e-03 -1.520314e-03 2.530051e-03
-2.072688e-06 -6.941208e-04 -4.957954e-06
2.383601e-05 -6.881483e-04 1.609144e-06
4.258287e-05 -6.902001e-04 4.849975e-06
3.105195e-03 -6.878638e-04 3.125175e-03
2.607159e-03 -6.161739e-04 2.178549e-03
7.604715e-05 -6.824413e-04 1.215799e-05
-3.157104e-05 -6.894712e-04 -9.228316e-06
8.642279e-04 9.579281e-03 -2.606632e-03
1.047673e-03 6.118296e-03 -1.154846e-03
8.031675e-04 2.924621e-04 1.632277e-04
7.012024e-04 7.855625e-04 1.239971e-04
1.346829e-04 -5.983185e-04 3.326787e-05
3.133385e-05 -5.212356e-04 3.519710e-05
4.008945e-04 -3.440393e-04 9.366429e-05
7.906320e-04 -3.105813e-04 1.442142e-04
1.573839e-03 3.439017e-03 -9.840087e-05
4.369917e-04 2.666181e-03 -1.972500e-04
2.220522e-03 1.297934e-03 4.493853e-04
2.314830e-03 1.935036e-03 4.766514e-04
1.624139e-03 1.647170e-03 2.241340e-04
2.055901e-03 1.881085e-03 3.426234e-04
-2.303100e-03 9.400635e-03 -2.618168e-03
-6.000598e-03 1.169167e-01 -3.525198e-02
-4.105355e-03 4.702965e-02 -1.648394e-02
-6.104926e-03 7.599737e-02 -2.339203e-02
-8.305479e-04 5.662657e-02 -2.008652e-02
2.297269e-03 2.647682e-03 4.857749e-04
2.155263e-03 3.394218e-03 4.647803e-04
1.864415e-03 4.073130e-03 4.354464e-04
-2.651374e-03 1.119738e-02 -3.425189e-03
-9.642857e-04 9.260175e-03 -1.547741e-03
-2.213270e-04 7.825797e-03 -7.691075e-04
-3.230520e-04 1.018605e-02 -1.914325e-03
-1.089162e-03 1.198941e-02 -2.955494e-03
4.187367e-04 6.312346e-03 -6.818536e-05
2.047805e-03 7.715597e-04 4.026363e-04
1.828729e-03 3.581667e-04 3.461862e-04
5.661637e-04 1.500760e-03 3.343010e-05
-8.495558e-03 5.395053e-02 -1.144757e-02
-4.075901e-03 2.423432e-02 -5.153573e-03
-3.772477e-03 1.851725e-02 -5.663851e-03
-5.259368e-03 3.205502e-02 -9.827226e-03
-8.690933e-03 1.285563e-01 -1.786770e-02
-5.794151e-03 4.616582e-02 -1.498665e-02
-2.819335e-03 4.290100e-02 -1.548404e-02
1.093218e-03 7.386025e-03 -6.859846e-04
1.546895e-03 6.332437e-03 -4.730812e-04
9.299758e-04 1.069279e-02 -2.706405e-03
4.621669e-04 -5.784553e-04 7.852470e-05
2.058174e-04 -6.403087e-04 3.727435e-05
-1.116352e-03 1.333807e-02 -1.177756e-03
3.467945e-03 1.017444e-02 4.436962e-03
1.435618e-03 4.610091e-03 4.080586e-04
-2.560917e-03 1.296564e-02 -3.401405e-03
1.120447e-03 -3.075623e-04 1.893211e-04
1.349557e-03 -1.640812e-04 2.318696e-04
-7.137441e-04 2.804038e-03 -2.222406e-04
-3.505189e-04 1.523090e-03 -6.422554e-06
4.258616e-04 -4.799358e-04 8.362565e-05
4.597197e-04 -5.471159e-04 8.074395e-05
-1.843961e-03 7.844257e-03 -1.616440e-03
-1.375331e-03 6.534809e-03 -6.815050e-04
6.858005e-04 -4.902239e-04 1.206664e-04
1.417617e-03 7.121714e-03 -1.174067e-03
1.800106e-03 5.047076e-03 -2.333534e-04
1.589996e-03 5.133480e-05 2.861708e-04
-1.318034e-04 -3.939279e-04 3.591450e-05
-3.506343e-04 -1.793064e-04 3.964757e-05
3.113839e-04 -1.195785e-04 1.031942e-04
8.822145e-03 4.873908e-03 1.053167e-02
-1.035785e-03 7.060993e-03 -6.098986e-04
-9.531206e-04 5.474091e-03 -2.981688e-05
1.265068e-03 2.394659e-03 3.067282e-06
1.133684e-03 1.382760e-03 1.339196e-04
9.436223e-04 -3.853152e-04 1.618587e-04
1.089338e-03 3.846801e-03 -3.552311e-04
1.555408e-03 4.843961e-03 -4.631235e-04
-5.727775e-04 4.354372e-03 4.827427e-04
-2.375988e-04 4.201726e-03 5.880819e-04
4.882336e-04 1.029347e-02 -2.104744e-03
5.566477e-04 1.490221e-02 -4.871201e-03
2.491534e-04 4.438883e-03 -7.053567e-04
9.293201e-04 4.877386e-03 4.078158e-04
-6.553771e-04 1.378786e-04 6.341477e-05
-6.701923e-07 4.630246e-03 5.036418e-04
-5.331995e-04 5.562081e-03 1.406428e-04
7.752991e-04 -4.546590e-04 1.320899e-04
-5.203512e-03 9.147297e-03 -1.052500e-03
9.656067e-03 2.325670e-02 1.224545e-02
-2.247555e-03 1.113596e-02 -3.054501e-03
2.082881e-03 3.696846e-03 2.337457e-04
1.885046e-03 3.708916e-03 1.717100e-05
-6.688470e-03 1.862656e-02 -4.486070e-03
-1.056671e-03 6.297132e-04 8.679671e-05
-1.596325e-03 8.876495e-03 -1.713436e-03
-1.707898e-03 1.191900e-02 -3.101618e-03
-2.866200e-04 7.250291e-02 6.636929e-03
1.366325e-04 2.182514e-04 9.363362e-05
-6.907113e-05 7.362697e-04 6.606426e-05
9.142253e-04 -4.530845e-05 1.745027e-04
-1.869031e-03 1.595630e-02 -4.996387e-03
4.276021e-04 4.887668e-03 4.323478e-04
1.895250e-03 4.683861e-03 1.256332e-04
7.661584e-05 7.458036e-03 -1.788090e-03
-1.652320e-03 8.714750e-03 -2.086679e-03
-1.188247e-03 4.933907e-03 -7.693555e-04
1.432223e-03 1.759563e-04 2.573677e-04
1.659609e-03 5.830299e-04 3.080619e-04
-1.271135e-03 2.819219e-02 1.016627e-04
-3.022616e-03 1.424910e-02 -4.531518e-03
2.136930e-03 2.752982e-03 3.098323e-04
-2.687365e-04 2.100253e-02 -7.311815e-03
-1.631866e-03 1.553957e-02 -4.738143e-03
-2.533061e-03 2.191758e-02 -7.596127e-03
-1.900321e-03 2.799767e-02 -1.006398e-02
-1.103550e-03 1.917470e-02 -6.379334e-03
-3.622125e-03 4.941501e-03 -1.142664e-04
-2.391881e-03 2.699912e-03 8.961812e-05
-1.616603e-03 1.413589e-03 1.181037e-04
-1.316511e-03 3.130368e-02 -1.096528e-02
-1.807303e-04 1.241692e-02 -3.833008e-03
1.005362e-03 6.130745e-03 -5.418554e-05
4.189790e-04 8.048929e-03 -8.734607e-04
1.528153e-03 5.536000e-03 1.846054e-05
-2.561392e-03 1.581032e-02 -5.017308e-03
-3.771136e-03 3.180864e-02 -1.118462e-02
1.221197e-04 1.469442e-02 -4.389412e-03
1.333317e-03 8.445718e-04 2.271961e-04
1.821610e-03 2.623430e-03 1.440907e-04
1.202032e-03 -1.220648e-04 2.110928e-04
-9.393382e-05 6.094140e-03 7.269754e-06
-3.716176e-03 2.196439e-02 -7.435270e-03
-5.843143e-04 1.351039e-02 -3.694978e-03
1.874874e-03 1.154270e-03 3.341433e-04
-5.993679e-04 7.168297e-03 -5.178679e-04
-8.632734e-04 3.328467e-02 -1.196716e-02
6.978501e-04 -4.353939e-04 1.220107e-04
1.249285e-03 3.396959e-04 2.275975e-04
1.002350e-03 -3.176512e-04 1.711223e-04
1.159315e-03 8.374116e-03 -1.397160e-03
-5.306189e-04 2.163432e-02 -7.343315e-03
1.645858e-02 7.108980e-02 2.716505e-02
6.913757e-03 5.408458e-04 1.082762e-02
5.481193e-03 4.832588e-05 6.896005e-03
-7.286894e-04 -2.045478e-04 2.878597e-05
1.115798e-02 3.976181e-03 1.832980e-02
-5.560757e-04 -3.074856e-04 1.446961e-05
-1.122998e-03 9.557094e-05 7.517378e-05
-8.504634e-03 8.279887e-03 8.058039e-04
1.487072e-02 1.205715e-02 2.376949e-02
-1.401495e-02 1.747129e-02 -1.780688e-03
2.252682e-02 3.196495e-02 3.199184e-02
1.120475e-02 1.345289e-01 1.378786e-02
-1.762169e-02 5.144697e-02 -1.756132e-02
-1.064616e-02 1.108318e-01 -3.199604e-02
-1.089718e-04 -5.741451e-04 9.220121e-06
6.795177e-05 -6.537553e-04 1.524880e-05