# vtk DataFile Version 2.0
Simplicial Mesh Example
ASCII
DATASET UNSTRUCTURED_GRID
POINTS 730 double
3.000000e+05 -1.659466e+05 0.000000e+00
3.323841e+05 -1.500853e+05 0.000000e+00
1.000000e+05 -3.000000e+05 0.000000e+00
8.376766e+04 -3.323560e+05 0.000000e+00
3.680760e+05 -6.909438e+04 0.000000e+00
-3.000000e+05 -2.326501e+05 0.000000e+00
-3.000000e+05 -1.989752e+05 0.000000e+00
-3.324295e+05 -2.170264e+05 0.000000e+00
-2.515393e+05 -3.324613e+05 0.000000e+00
-2.666667e+05 -3.000000e+05 0.000000e+00
-1.666667e+05 -3.000000e+05 0.000000e+00
-1.507909e+05 -3.323848e+05 0.000000e+00
-1.038755e+05 3.680862e+05 0.000000e+00
-1.217391e+05 4.000000e+05 0.000000e+00
-8.379954e+04 3.323534e+05 0.000000e+00
3.000000e+05 -6.540655e+04 0.000000e+00
1.000000e+05 3.000000e+05 0.000000e+00
1.172617e+05 3.323725e+05 0.000000e+00
3.680819e+05 1.387484e+05 0.000000e+00
4.000000e+05 1.565217e+05 0.000000e+00
-3.461370e+04 -3.681008e+05 0.000000e+00
-1.739130e+04 -4.000000e+05 0.000000e+00
-1.676668e+04 -3.323444e+05 0.000000e+00
3.679951e+05 -2.423193e+05 0.000000e+00
4.000000e+05 -2.608696e+05 0.000000e+00
3.324577e+05 -2.511100e+05 0.000000e+00
-3.698054e+05 -3.472763e+05 0.000000e+00
-3.663396e+05 -3.129808e+05 0.000000e+00
-3.315797e+05 -3.410949e+05 0.000000e+00
1.731007e+05 3.680556e+05 0.000000e+00
1.913043e+05 4.000000e+05 0.000000e+00
4.000000e+05 2.956522e+05 0.000000e+00
-2.179099e+05 -3.324288e+05 0.000000e+00
-2.000000e+05 -3.000000e+05 0.000000e+00
-1.172626e+05 3.323723e+05 0.000000e+00
-1.000000e+05 3.000000e+05 0.000000e+00
3.000000e+05 -9.891990e+04 0.000000e+00
3.323674e+05 -1.164140e+05 0.000000e+00
-3.000000e+05 -3.162526e+04 0.000000e+00
-3.000000e+05 1.537267e+03 0.000000e+00
-3.324526e+05 -2.845988e+05 0.000000e+00
-3.280582e+05 -3.160567e+05 0.000000e+00
-2.333333e+05 -3.000000e+05 0.000000e+00
-1.731007e+05 -3.680556e+05 0.000000e+00
-2.077253e+05 -3.680332e+05 0.000000e+00
5.217391e+04 4.000000e+05 0.000000e+00
1.674987e+04 3.323474e+05 0.000000e+00
3.461320e+04 3.681000e+05 0.000000e+00
3.333333e+04 3.000000e+05 0.000000e+00
-3.680268e+05 2.424010e+05 0.000000e+00
-3.680500e+05 2.077851e+05 0.000000e+00
-1.731195e+05 3.680519e+05 0.000000e+00
-4.000000e+05 2.260870e+05 0.000000e+00
-2.883046e+05 -3.320639e+05 0.000000e+00
-3.323717e+05 -1.156481e+05 0.000000e+00
-3.323844e+05 -1.494568e+05 0.000000e+00
-3.323741e+05 -4.867882e+04 0.000000e+00
3.680861e+05 1.041109e+05 0.000000e+00
4.000000e+05 1.217391e+05 0.000000e+00
3.681214e+05 1.733599e+05 0.000000e+00
-4.000000e+05 2.608696e+05 0.000000e+00
1.731179e+05 -3.680539e+05 0.000000e+00
2.077389e+05 -3.680332e+05 0.000000e+00
3.324653e+05 -2.846969e+05 0.000000e+00
3.280142e+05 -3.160947e+05 0.000000e+00
2.260870e+05 -4.000000e+05 0.000000e+00
2.333333e+05 -3.000000e+05 0.000000e+00
2.515884e+05 -3.324527e+05 0.000000e+00
2.178294e+05 -3.324303e+05 0.000000e+00
1.666667e+05 -3.000000e+05 0.000000e+00
1.507941e+05 -3.323846e+05 0.000000e+00
1.843081e+05 -3.324053e+05 0.000000e+00
-2.077411e+05 3.680376e+05 0.000000e+00
-2.260870e+05 4.000000e+05 0.000000e+00
-3.323592e+05 1.803079e+04 0.000000e+00
-3.323564e+05 -1.534688e+04 0.000000e+00
-3.681082e+05 1.584064e+02 0.000000e+00
3.323394e+05 1.192487e+05 0.000000e+00
3.000000e+05 1.021602e+05 0.000000e+00
-3.323756e+05 1.180902e+05 0.000000e+00
-3.323866e+05 1.514636e+05 0.000000e+00
-4.000000e+05 -1.217391e+05 0.000000e+00
-3.680643e+05 -1.036683e+05 0.000000e+00
-3.680322e+05 -1.383008e+05 0.000000e+00
1.333333e+05 3.000000e+05 0.000000e+00
1.507909e+05 3.323848e+05 0.000000e+00
-3.324024e+05 -1.833258e+05 0.000000e+00
-1.384781e+05 -3.680720e+05 0.000000e+00
-1.038578e+05 -3.680873e+05 0.000000e+00
-1.217391e+05 -4.000000e+05 0.000000e+00
1.384965e+05 -3.680708e+05 0.000000e+00
1.565217e+05 -4.000000e+05 0.000000e+00
-4.000000e+05 1.565217e+05 0.000000e+00
-3.680901e+05 1.385746e+05 0.000000e+00
1.038746e+05 -3.680839e+05 0.000000e+00
1.217391e+05 -4.000000e+05 0.000000e+00
1.674277e+04 -3.323442e+05 0.000000e+00
3.463000e+04 -3.680990e+05 0.000000e+00
7.744455e+00 -3.681012e+05 0.000000e+00
-4.000000e+05 -1.565217e+05 0.000000e+00
-3.680143e+05 -1.729566e+05 0.000000e+00
1.739130e+04 4.000000e+05 0.000000e+00
3.325804e+05 1.861647e+05 0.000000e+00
-3.323820e+05 -8.213181e+04 0.000000e+00
-3.000000e+05 1.010248e+05 0.000000e+00
-3.323572e+05 8.476518e+04 0.000000e+00
-3.320733e+05 2.883554e+05 0.000000e+00
-6.923637e+04 -3.680930e+05 0.000000e+00
-5.217391e+04 -4.000000e+05 0.000000e+00
3.680896e+05 6.946960e+04 0.000000e+00
4.000000e+05 5.217391e+04 0.000000e+00
4.000000e+05 8.695652e+04 0.000000e+00
1.739130e+04 -4.000000e+05 0.000000e+00
2.000000e+05 -3.000000e+05 0.000000e+00
-2.000000e+05 3.000000e+05 0.000000e+00
-2.177787e+05 3.324359e+05 0.000000e+00
-1.843648e+05 3.324029e+05 0.000000e+00
-3.681034e+05 -3.444502e+04 0.000000e+00
3.680524e+05 -1.383766e+05 0.000000e+00
4.000000e+05 -1.565217e+05 0.000000e+00
3.680364e+05 -1.730173e+05 0.000000e+00
6.925236e+04 -3.680933e+05 0.000000e+00
5.217391e+04 -4.000000e+05 0.000000e+00
3.323341e+05 8.558297e+04 0.000000e+00
3.000000e+05 6.864685e+04 0.000000e+00
2.666667e+05 3.000000e+05 0.000000e+00
2.515361e+05 3.324615e+05 0.000000e+00
1.565217e+05 4.000000e+05 0.000000e+00
1.384781e+05 3.680720e+05 0.000000e+00
3.000000e+05 -2.329733e+05 0.000000e+00
3.324280e+05 -2.174304e+05 0.000000e+00
3.000000e+05 2.018902e+05 0.000000e+00
3.326080e+05 2.191835e+05 0.000000e+00
-4.000000e+05 -2.260870e+05 0.000000e+00
-3.680029e+05 -2.076147e+05 0.000000e+00
-3.679763e+05 -2.422690e+05 0.000000e+00
3.680656e+05 -1.037356e+05 0.000000e+00
4.000000e+05 -1.217391e+05 0.000000e+00
6.666667e+04 -3.000000e+05 0.000000e+00
5.025498e+04 -3.323480e+05 0.000000e+00
3.333333e+04 -3.000000e+05 0.000000e+00
2.423612e+05 -3.680038e+05 0.000000e+00
2.608696e+05 -4.000000e+05 0.000000e+00
-3.678653e+05 2.770869e+05 0.000000e+00
2.770113e+05 -3.678523e+05 0.000000e+00
-4.000000e+05 -1.739130e+04 0.000000e+00
4.000000e+05 -8.695652e+04 0.000000e+00
-3.000000e+05 1.341874e+05 0.000000e+00
-6.666667e+04 3.000000e+05 0.000000e+00
-5.025707e+04 3.323515e+05 0.000000e+00
-3.000000e+05 2.005124e+05 0.000000e+00
-3.000000e+05 2.336749e+05 0.000000e+00
-3.324312e+05 2.182807e+05 0.000000e+00
-3.333333e+04 3.000000e+05 0.000000e+00
3.663474e+05 -3.132902e+05 0.000000e+00
4.000000e+05 -3.304348e+05 0.000000e+00
3.694761e+05 -3.502454e+05 0.000000e+00
4.000000e+05 -3.652174e+05 0.000000e+00
3.000000e+05 -1.324332e+05 0.000000e+00
-6.666667e+04 -3.000000e+05 0.000000e+00
-8.379869e+04 -3.323535e+05 0.000000e+00
-3.333333e+04 -3.000000e+05 0.000000e+00
-5.025687e+04 -3.323516e+05 0.000000e+00
3.323395e+05 -1.540013e+04 0.000000e+00
3.323331e+05 1.824617e+04 0.000000e+00
3.000000e+05 1.620150e+03 0.000000e+00
-4.000000e+05 5.217391e+04 0.000000e+00
-3.681122e+05 3.476335e+04 0.000000e+00
3.681472e+05 2.079604e+05 0.000000e+00
3.681188e+05 2.425277e+05 0.000000e+00
4.000000e+05 2.260870e+05 0.000000e+00
3.680460e+05 2.771856e+05 0.000000e+00
-1.913043e+05 4.000000e+05 0.000000e+00
3.324042e+05 -1.837572e+05 0.000000e+00
3.000000e+05 3.513350e+04 0.000000e+00
-6.925390e+04 3.680922e+05 0.000000e+00
-8.695652e+04 4.000000e+05 0.000000e+00
-1.384959e+05 3.680704e+05 0.000000e+00
3.326450e+05 2.521588e+05 0.000000e+00
3.000000e+05 2.345935e+05 0.000000e+00
3.680898e+05 1.877167e+02 0.000000e+00
3.680838e+05 -3.445303e+04 0.000000e+00
4.000000e+05 -1.739130e+04 0.000000e+00
2.666667e+05 -3.000000e+05 0.000000e+00
2.882915e+05 -3.320621e+05 0.000000e+00
-4.000000e+05 1.217391e+05 0.000000e+00
-3.681035e+05 1.039715e+05 0.000000e+00
4.000000e+05 1.913043e+05 0.000000e+00
1.666667e+05 3.000000e+05 0.000000e+00
1.843130e+05 3.324055e+05 0.000000e+00
-3.686836e+05 3.117864e+05 0.000000e+00
-4.000000e+05 2.956522e+05 0.000000e+00
-1.913043e+05 -4.000000e+05 0.000000e+00
-2.423632e+05 -3.680118e+05 0.000000e+00
-2.260870e+05 -4.000000e+05 0.000000e+00
-3.000000e+05 -6.478778e+04 0.000000e+00
1.217391e+05 4.000000e+05 0.000000e+00
1.038578e+05 3.680873e+05 0.000000e+00
-1.333333e+05 3.000000e+05 0.000000e+00
-1.507965e+05 3.323846e+05 0.000000e+00
3.680174e+05 -2.076594e+05 0.000000e+00
4.000000e+05 -2.260870e+05 0.000000e+00
-2.608696e+05 -4.000000e+05 0.000000e+00
-2.771049e+05 -3.678525e+05 0.000000e+00
2.179096e+05 3.324288e+05 0.000000e+00
2.000000e+05 3.000000e+05 0.000000e+00
-1.333333e+05 -3.000000e+05 0.000000e+00
-1.000000e+05 -3.000000e+05 0.000000e+00
-1.172617e+05 -3.323725e+05 0.000000e+00
-3.324670e+05 2.517626e+05 0.000000e+00
1.172807e+05 -3.323682e+05 0.000000e+00
4.000000e+05 -5.217391e+04 0.000000e+00
-3.324074e+05 1.848350e+05 0.000000e+00
-2.513373e+05 3.324609e+05 0.000000e+00
-2.333333e+05 3.000000e+05 0.000000e+00
8.695652e+04 -4.000000e+05 0.000000e+00
-4.000000e+05 1.913043e+05 0.000000e+00
-3.680735e+05 1.731789e+05 0.000000e+00
-3.679440e+05 -2.770299e+05 0.000000e+00
-4.000000e+05 -2.608696e+05 0.000000e+00
6.923623e+04 3.680926e+05 0.000000e+00
8.695652e+04 4.000000e+05 0.000000e+00
2.608696e+05 4.000000e+05 0.000000e+00
2.771027e+05 3.678569e+05 0.000000e+00
2.423629e+05 3.680119e+05 0.000000e+00
2.956522e+05 4.000000e+05 0.000000e+00
3.121717e+05 3.686941e+05 0.000000e+00
-3.709768e+05 3.470258e+05 0.000000e+00
-3.410676e+05 3.315303e+05 0.000000e+00
3.679565e+05 -2.771494e+05 0.000000e+00
4.000000e+05 -2.956522e+05 0.000000e+00
2.260870e+05 4.000000e+05 0.000000e+00
2.077253e+05 3.680332e+05 0.000000e+00
-3.000000e+05 -1.653002e+05 0.000000e+00
-3.681074e+05 6.936799e+04 0.000000e+00
-4.000000e+05 8.695652e+04 0.000000e+00
-2.847890e+05 3.324722e+05 0.000000e+00
-2.666667e+05 3.000000e+05 0.000000e+00
6.666667e+04 3.000000e+05 0.000000e+00
8.379885e+04 3.323535e+05 0.000000e+00
3.324998e+05 2.850782e+05 0.000000e+00
3.000000e+05 2.672967e+05 0.000000e+00
-5.217391e+04 4.000000e+05 0.000000e+00
-3.463078e+04 3.680998e+05 0.000000e+00
-4.000000e+05 1.739130e+04 0.000000e+00
1.333333e+05 -3.000000e+05 0.000000e+00
-1.565217e+05 -4.000000e+05 0.000000e+00
[...]
POINT_DATA 730
VECTORS displacement double
-2.348743e-04 3.889351e-04 -6.427149e-05
-1.952082e-04 3.569263e-04 -6.973434e-05
9.160474e-04 -1.974667e-04 2.175895e-05
1.100094e-03 -2.390562e-04 7.809696e-05
-1.606489e-04 1.615132e-04 -9.224538e-05
-6.540383e-04 -7.109310e-04 -7.685618e-04
-5.491169e-04 -8.435395e-04 -9.571392e-04
-3.683450e-04 -1.030367e-05 -6.136382e-04
-7.345133e-04 -7.511083e-04 -1.790348e-04
-7.854410e-04 -9.266231e-04 -3.928408e-04
-3.865082e-04 -2.646039e-03 -9.626485e-04
-1.562814e-04 -1.695497e-03 -4.610692e-04
5.830905e-04 5.549346e-04 4.512856e-04
4.727338e-04 0.000000e+00 4.707249e-04
6.919040e-04 1.141137e-03 3.962849e-04
-5.249152e-04 1.683593e-04 -9.926067e-05
1.034652e-03 3.598165e-04 2.259260e-04
1.058774e-03 1.915112e-04 2.293058e-04
-4.108126e-05 -3.541058e-04 -3.115895e-05
0.000000e+00 -3.647725e-04 -2.100389e-05
9.610094e-04 -5.714330e-04 9.874843e-06
1.061274e-03 0.000000e+00 9.325993e-05
1.054427e-03 -1.074330e-03 -1.448934e-04
1.733724e-05 3.642238e-04 -1.897956e-05
0.000000e+00 3.409561e-04 -9.888427e-06
5.936466e-05 3.589805e-04 -1.184527e-05
-2.237263e-04 9.789036e-05 1.189947e-04
-2.538607e-04 1.690187e-04 7.378303e-07
-4.842057e-04 -2.392749e-05 6.122387e-05
9.295375e-04 1.427491e-05 1.793744e-04
8.739975e-04 0.000000e+00 1.629572e-04
0.000000e+00 -2.326442e-04 5.111319e-05
-6.585569e-04 -1.113090e-03 -2.895279e-04
-6.648853e-04 -2.156521e-03 -8.198069e-04
4.614842e-04 1.204196e-03 4.123224e-04
5.398885e-04 1.781146e-03 3.039415e-04
-4.549524e-04 2.667155e-04 -9.207319e-05
-2.709050e-04 2.962557e-04 -8.489466e-05
1.912334e-03 9.578842e-04 6.298981e-04
1.434205e-03 1.343516e-03 3.626270e-04
-4.769790e-04 -4.249057e-05 -2.107857e-04
-5.006994e-04 -6.773169e-05 -4.871029e-05
-7.972463e-04 -1.534029e-03 -6.107655e-04
-3.184449e-04 -6.934279e-04 -1.100072e-04
-5.602296e-04 -5.551250e-04 -6.315201e-05
1.189040e-03 0.000000e+00 3.225341e-04
1.125050e-03 6.658439e-04 3.318281e-04
1.171828e-03 2.751106e-04 3.376953e-04
1.105823e-03 8.414674e-04 2.794286e-04
-1.909301e-04 8.898918e-04 2.595733e-04
-2.159770e-04 9.320071e-04 1.440721e-04
1.301128e-04 5.503253e-04 4.724031e-04
0.000000e+00 8.489155e-04 2.159834e-04
-6.841713e-04 -3.832104e-04 -7.342079e-05
5.421118e-04 2.901297e-04 -4.364329e-04
1.184534e-04 1.431283e-04 -6.373623e-04
1.246263e-03 6.165464e-04 -5.539279e-06
-8.083220e-05 -3.161927e-04 -5.207301e-05
0.000000e+00 -3.396242e-04 -4.231905e-05
-3.114814e-06 -3.651561e-04 -9.019297e-06
0.000000e+00 7.864049e-04 3.132545e-04
8.757341e-04 4.665429e-05 1.176642e-04
7.279521e-04 7.307748e-05 9.554282e-05
1.297327e-04 3.042618e-04 5.955177e-06
1.935337e-04 2.337803e-04 2.099175e-05
6.696747e-04 0.000000e+00 8.772432e-05
4.351735e-04 2.516314e-04 4.318427e-05
4.764493e-04 1.835203e-04 5.572776e-05
6.056143e-04 1.622190e-04 7.273978e-05
6.710387e-04 1.347312e-04 5.840721e-05
8.731024e-04 4.526969e-05 9.680413e-05
7.361076e-04 1.198655e-04 8.692355e-05
-5.110561e-05 5.018150e-04 4.756566e-04
-1.095999e-04 0.000000e+00 4.886983e-04
7.429769e-04 8.361604e-04 -1.382420e-04
1.162290e-03 7.153499e-04 1.067859e-05
4.567754e-04 5.176544e-04 -2.747922e-04
-1.361261e-04 -3.346434e-04 -4.162359e-05
-2.614547e-04 -3.104249e-04 -4.875716e-05
-3.499577e-04 1.234929e-03 -2.986006e-04
-4.490100e-04 1.275149e-03 -1.667104e-04
0.000000e+00 7.550414e-04 -5.222223e-04
3.850272e-04 6.671077e-04 -4.496425e-04
1.750220e-04 6.452238e-04 -5.521623e-04
9.428855e-04 1.843096e-04 1.928285e-04
9.602546e-04 8.297071e-05 1.931245e-04
-1.916407e-04 3.879562e-05 -6.976496e-04
4.891697e-06 -7.685624e-04 -1.273886e-04
3.615421e-04 -7.642719e-04 -1.023177e-04
1.794241e-04 0.000000e+00 -2.848594e-05
1.014414e-03 3.691658e-06 1.352477e-04
9.688735e-04 0.000000e+00 1.340791e-04
0.000000e+00 7.684347e-04 -4.422312e-05
-1.911338e-04 8.234957e-04 -1.370041e-04
1.130757e-03 -6.161103e-05 1.458254e-04
1.099398e-03 0.000000e+00 1.531697e-04
1.149137e-03 -7.666652e-04 -4.496344e-05
1.213183e-03 -2.863350e-04 1.177014e-04
1.133478e-03 -4.235065e-04 7.087655e-05
0.000000e+00 7.304305e-04 -5.501305e-04
-4.593530e-06 5.789600e-04 -5.755306e-04
1.152795e-03 0.000000e+00 3.633249e-04
2.665172e-05 -3.558037e-04 5.445165e-07
1.008468e-03 4.641272e-04 -1.863106e-04
-4.821903e-04 2.064573e-03 -5.308356e-04
-1.179970e-04 1.146092e-03 -3.501659e-04
-2.898874e-04 8.770500e-04 3.639790e-04
6.949993e-04 -6.895152e-04 -5.552465e-05
8.339944e-04 0.000000e+00 4.299450e-05
-1.163613e-04 -2.513814e-04 -6.901786e-05
0.000000e+00 -2.104322e-04 -7.622370e-05
0.000000e+00 -2.874253e-04 -6.102081e-05
1.193596e-03 0.000000e+00 1.332927e-04
5.484660e-04 2.099815e-04 5.309549e-05
-1.614155e-04 1.649906e-03 3.416423e-04
-1.522622e-04 1.032550e-03 4.334009e-04
1.128861e-05 1.145707e-03 4.295193e-04
5.747945e-04 5.714095e-04 -2.677876e-04
-1.041980e-04 3.278811e-04 -7.124830e-05
0.000000e+00 3.518182e-04 -6.169079e-05
-6.254017e-05 3.716155e-04 -5.648556e-05
1.205100e-03 -1.614610e-04 1.391216e-04
1.234535e-03 0.000000e+00 1.559052e-04
-2.184583e-04 -2.855618e-04 -6.129758e-05
-3.769922e-04 -2.509771e-04 -6.756920e-05
4.632528e-04 -1.648216e-04 8.655479e-05
5.772316e-04 -9.883626e-05 1.069649e-04
1.000160e-03 0.000000e+00 1.982723e-04
1.044723e-03 6.190344e-05 2.161488e-04
2.894178e-05 3.848432e-04 -1.989604e-05
-2.522349e-05 3.883039e-04 -3.288230e-05
1.004723e-04 -3.303392e-04 1.753050e-05
9.877012e-05 -3.324024e-04 2.067938e-05
0.000000e+00 5.360561e-04 -3.763670e-04
-1.310733e-04 4.811610e-04 -4.936248e-04
-1.978999e-04 3.752663e-04 -3.398413e-04
-1.386510e-04 2.564123e-04 -8.396744e-05
0.000000e+00 2.950706e-04 -7.728907e-05
1.015007e-03 -5.052824e-04 -4.525769e-05
1.160004e-03 -4.718882e-04 3.396603e-05
1.080864e-03 -9.123431e-04 -1.620604e-04
5.810949e-04 8.654450e-05 7.377767e-05
5.217729e-04 0.000000e+00 6.631935e-05
-1.602903e-04 7.794460e-04 3.489274e-04
4.402794e-04 9.316569e-05 5.475949e-05
0.000000e+00 5.003634e-04 -3.328262e-04
0.000000e+00 2.105304e-04 -8.802261e-05
-6.475980e-04 1.993860e-03 -4.120479e-04
7.679983e-04 1.626278e-03 3.072091e-04
8.912596e-04 1.019358e-03 3.786761e-04
-6.198460e-04 1.695546e-03 -1.496460e-05
-5.251845e-04 1.499252e-03 1.613338e-04
-4.201627e-04 1.195213e-03 1.419089e-04
9.470544e-04 1.396261e-03 3.044665e-04
8.631509e-05 2.408834e-04 1.316599e-05
0.000000e+00 1.977664e-04 1.761745e-05
9.821178e-05 1.445209e-04 2.396678e-05
0.000000e+00 1.022958e-04 2.452484e-05
-3.531353e-04 3.423632e-04 -8.009787e-05
7.422743e-04 -2.476574e-03 -7.493160e-04
5.636569e-04 -1.641404e-03 -3.809394e-04
9.740387e-04 -2.021840e-03 -5.670783e-04
8.507734e-04 -1.409336e-03 -2.675199e-04
-3.607770e-04 -6.566880e-06 -9.714495e-05
-3.366039e-04 -1.147009e-04 -9.004125e-05
-5.334027e-04 -6.012961e-05 -9.510029e-05
0.000000e+00 4.599315e-04 -3.252208e-04
2.481421e-04 5.279774e-04 -3.125108e-04
3.471164e-05 -3.505815e-04 1.101843e-05
6.866291e-05 -3.153450e-04 2.888953e-05
0.000000e+00 -3.372927e-04 2.078270e-05
8.924978e-05 -2.636079e-04 4.578561e-05
4.328041e-05 0.000000e+00 4.880734e-04
-1.103308e-04 3.890696e-04 -5.187496e-05
-4.732482e-04 -1.650765e-04 -8.452000e-05
8.013393e-04 5.149314e-04 4.316943e-04
6.996388e-04 0.000000e+00 4.519832e-04
3.508508e-04 5.671590e-04 4.648312e-04
1.599355e-04 -2.923384e-04 3.975043e-05
1.976394e-04 -2.956668e-04 3.713492e-05
-1.642792e-04 -5.925872e-05 -9.170918e-05
-1.691324e-04 5.271522e-05 -9.475674e-05
0.000000e+00 -3.567531e-06 -9.375807e-05
3.307905e-04 2.691159e-04 3.101386e-05
3.446432e-04 1.932847e-04 3.994394e-05
0.000000e+00 6.578591e-04 -1.755914e-04
-1.034326e-04 7.123825e-04 -2.554488e-04
0.000000e+00 -3.631352e-04 7.256044e-07
8.320099e-04 4.882255e-05 1.608325e-04
8.419857e-04 1.266970e-06 1.591652e-04
-1.277623e-04 6.033445e-04 4.084992e-04
0.000000e+00 6.559402e-04 3.836907e-04
-4.451717e-04 0.000000e+00 -9.086312e-06
-6.830117e-04 -3.903014e-04 -2.240048e-06
-6.279239e-04 0.000000e+00 3.299964e-05
1.688804e-03 3.365175e-04 5.170246e-04
1.102525e-03 0.000000e+00 2.372811e-04
1.131335e-03 1.213739e-04 2.564456e-04
2.856998e-04 1.843159e-03 3.159687e-04
2.243443e-04 1.207777e-03 4.227533e-04
-3.056743e-05 3.847507e-04 -3.693677e-05
0.000000e+00 3.758909e-04 -2.683606e-05
-6.890454e-04 0.000000e+00 8.408630e-05
-6.857357e-04 -2.192065e-04 6.502049e-05
7.112868e-04 -5.679910e-05 1.300409e-04
7.106789e-04 -4.965197e-05 1.316355e-04
-6.089329e-06 -2.894157e-03 -1.015684e-03
4.002088e-04 -2.828337e-03 -9.280071e-04
2.052377e-04 -1.752820e-03 -4.331790e-04
-3.597143e-04 1.071574e-03 2.649733e-04
9.988281e-04 -6.938751e-05 9.638217e-05
0.000000e+00 1.077205e-04 -9.369698e-05
-4.602979e-04 1.262532e-03 -7.862568e-06
-2.532763e-04 8.899800e-04 4.374122e-04
-2.981953e-04 1.441394e-03 3.569300e-04
1.194986e-03 0.000000e+00 1.612138e-04
0.000000e+00 8.397086e-04 9.404460e-05
-2.217037e-04 9.050418e-04 5.790452e-06
-2.292442e-04 2.719081e-04 -1.583759e-04
0.000000e+00 4.097389e-04 -2.114537e-04
1.177203e-03 1.938838e-04 2.971590e-04
1.169452e-03 0.000000e+00 2.798219e-04
5.880768e-04 0.000000e+00 1.098256e-04
5.102412e-04 -5.737012e-05 9.986362e-05
6.555646e-04 -4.128107e-05 1.202607e-04
4.396799e-04 0.000000e+00 9.089500e-05
3.639634e-04 -6.472057e-05 8.343074e-05
-1.006212e-04 3.819135e-04 4.464086e-04
-2.009612e-04 5.505320e-04 4.338317e-04
5.217210e-05 3.161103e-04 -1.543954e-06
0.000000e+00 2.797959e-04 5.438661e-06
7.343102e-04 0.000000e+00 1.331992e-04
7.971222e-04 -1.758313e-05 1.459192e-04
-3.220243e-04 -9.360964e-04 -9.269505e-04
3.821177e-05 6.089118e-04 -3.224173e-04
0.000000e+00 5.431153e-04 -2.777304e-04
-2.848657e-04 7.489408e-04 4.399993e-04
-3.571369e-04 1.209280e-03 3.732678e-04
1.093459e-03 5.832725e-04 2.564988e-04
1.127240e-03 3.303426e-04 2.653323e-04
2.076833e-04 -2.375974e-04 5.470714e-05
2.788687e-04 -2.490428e-04 5.640752e-05
9.010865e-04 0.000000e+00 4.301649e-04
9.824082e-04 4.431326e-04 4.074221e-04
0.000000e+00 4.406222e-04 -3.283752e-04
7.969543e-04 2.054073e-06 5.109689e-05
-1.637868e-04 0.000000e+00 -3.317329e-05
0.000000e+00 -1.131421e-04 -8.798818e-05
-5.519407e-04 5.477837e-05 -1.001377e-04
1.107678e-03 3.579282e-04 3.758050e-04
1.056856e-03 0.000000e+00 4.009077e-04
2.390540e-04 2.699393e-04 2.149324e-05
1.153411e-03 4.923201e-04 3.009202e-04
2.043834e-04 -6.732468e-05 7.261832e-05
2.671311e-04 -1.276466e-04 7.285344e-05
-6.770101e-04 1.862531e-03 -2.229700e-04
0.000000e+00 0.000000e+00 4.647267e-04
-1.032980e-04 0.000000e+00 4.652640e-04
0.000000e+00 2.460603e-04 4.546045e-04
-6.307911e-04 0.000000e+00 1.333142e-04
-5.769205e-04 -8.021366e-05 1.156688e-04
4.306663e-04 -1.266755e-04 8.632409e-05
1.078940e-03 -1.423494e-03 -3.258424e-04
6.153524e-04 1.747781e-03 -1.117866e-04
2.400018e-04 9.997462e-04 -3.011994e-04
-3.602857e-04 2.606110e-05 1.534347e-04
-4.795553e-04 0.000000e+00 1.657301e-04
-3.580242e-04 1.051827e-04 -9.896494e-05
-3.270546e-04 2.093087e-04 -9.443246e-05
-1.482201e-04 2.356961e-04 4.631038e-04
-2.853370e-04 -2.106805e-04 -7.760215e-05
0.000000e+00 0.000000e+00 1.948837e-04
-2.565676e-04 0.000000e+00 1.850125e-04
5.335344e-04 6.336451e-04 -3.390808e-04
1.231700e-04 0.000000e+00 3.099316e-05
0.000000e+00 0.000000e+00 2.709379e-05
-6.505718e-04 -4.207539e-04 -2.442378e-04
2.610545e-04 -1.762877e-04 6.719610e-05
-1.739853e-04 4.339791e-04 4.764974e-04
-1.964102e-04 0.000000e+00 4.791856e-04
-2.350546e-04 3.787879e-04 4.719598e-04
-3.342400e-04 9.797527e-04 3.853257e-04
-2.596952e-04 6.541041e-04 4.330540e-04
-2.238812e-04 3.223617e-04 4.643725e-04
-1.853206e-04 0.000000e+00 4.699966e-04
2.138689e-04 1.701803e-04 2.847476e-05
3.078526e-04 9.212750e-05 4.047405e-05
-1.454574e-04 -1.637122e-04 -8.297610e-05
1.823126e-04 8.602170e-05 3.184301e-05
1.037654e-03 8.480090e-04 3.559621e-04
-5.350244e-05 -3.577770e-04 -2.017714e-05
-1.137401e-04 2.003709e-03 -4.394621e-04
1.198111e-04 -1.953005e-04 5.876601e-05
0.000000e+00 0.000000e+00 6.970366e-05
0.000000e+00 -8.149918e-05 6.722721e-05
1.448462e-04 0.000000e+00 7.240233e-05
1.198451e-04 -1.211590e-04 6.725927e-05
5.293822e-04 0.000000e+00 8.032110e-08
0.000000e+00 3.779705e-04 -4.343026e-05
3.950571e-05 1.795251e-03 3.268666e-04
-4.471059e-04 -2.496765e-05 -4.219603e-04
-4.579852e-04 -1.451165e-03 -3.839957e-04
2.447986e-04 0.000000e+00 4.830109e-04
2.925423e-04 0.000000e+00 7.939558e-05
1.443195e-04 3.402651e-04 1.695809e-06
1.058168e-03 1.122214e-03 2.939144e-04
8.215839e-04 0.000000e+00 1.111810e-04
-9.892479e-05 4.029425e-04 -4.229207e-05
0.000000e+00 7.069331e-04 -4.493828e-04
5.859691e-04 -1.200342e-04 1.066624e-04
-2.204786e-04 0.000000e+00 4.771753e-04
-6.686868e-04 -5.282087e-04 -4.898119e-04
2.496710e-04 0.000000e+00 3.879140e-05
0.000000e+00 -1.605246e-04 6.144792e-05
0.000000e+00 -2.909286e-04 3.865391e-05
3.392409e-04 -1.913017e-04 7.079530e-05
0.000000e+00 6.506126e-04 -4.999656e-04
3.813040e-04 0.000000e+00 4.885606e-05
0.000000e+00 8.202728e-05 1.612584e-04
0.000000e+00 6.103971e-04 -3.746292e-04
0.000000e+00 1.774034e-04 7.991215e-05
-4.331067e-04 1.257349e-03 2.912906e-04
0.000000e+00 2.882591e-04 -4.972079e-05
-1.366510e-04 -3.417918e-04 -2.746196e-05
0.000000e+00 4.693145e-04 4.289736e-04
9.563338e-04 -2.845089e-04 9.100818e-06
1.052981e-03 1.739147e-04 -8.812016e-05
1.333810e-03 7.383827e-06 2.864392e-04
7.568653e-04 1.482347e-05 -2.504000e-04
5.591189e-04 -5.351586e-04 -3.019430e-04
2.684846e-04 -6.914758e-04 -5.575275e-04
-7.414552e-05 -3.462498e-04 -1.685442e-05
-1.365099e-05 -3.469092e-04 -5.355560e-06
9.184564e-06 -3.519343e-04 -2.378629e-06
-3.876708e-05 -3.549435e-04 -1.324093e-05
4.623317e-05 -3.398595e-04 6.685740e-06
4.502046e-04 -1.849172e-04 8.153208e-05
5.579180e-04 -1.210508e-04 1.029473e-04
8.553029e-05 3.012103e-03 -6.793146e-04
4.381179e-04 3.957793e-03 -9.257077e-04
1.556595e-04 1.852554e-03 -1.920799e-04
6.067199e-04 2.435375e-03 -2.848010e-04
5.573738e-04 1.584611e-03 -5.652724e-05
-1.877785e-04 3.109789e-03 -8.964486e-05
-4.806867e-04 3.751886e-03 -4.169836e-04
-1.361157e-03 1.024247e-02 -3.427522e-03
-1.071549e-03 1.329557e-02 -4.769107e-03
-9.929022e-04 7.210261e-03 -2.195035e-03
-7.584991e-04 9.375404e-03 -3.157493e-03
-7.868417e-04 2.423701e-03 -2.503996e-04
-3.621844e-03 6.634635e-03 -1.815570e-03
-1.005413e-03 6.231723e-03 -2.051311e-03
3.816857e-05 -2.831115e-04 2.203480e-05
8.142858e-05 -3.146767e-04 1.706231e-05
7.298793e-05 2.462953e-03 1.557385e-04
-1.753157e-04 2.313573e-03 1.860092e-04
2.153399e-04 6.243208e-03 -1.769394e-03
-1.741000e-04 7.638906e-03 -2.356184e-03
2.214028e-04 5.114185e-03 -1.101131e-03
-1.846648e-04 5.473710e-03 -1.184629e-03
7.893584e-04 1.202447e-04 1.598657e-04
8.972741e-04 3.155795e-04 1.897159e-04
9.846763e-04 5.706614e-04 2.142518e-04
4.078453e-04 6.879334e-05 1.016421e-04
6.972891e-04 2.143110e-04 1.440836e-04
-1.225376e-03 6.640135e-03 -1.995785e-03
-1.000796e-03 5.141503e-03 -1.299323e-03
8.329354e-04 2.012645e-03 1.876269e-04
9.734181e-04 1.639107e-03 2.148192e-04
7.020692e-03 1.011874e-02 9.370298e-03
3.211676e-03 4.077256e-02 2.727628e-03
3.578170e-04 1.601952e-02 1.111979e-03
2.650944e-03 5.296458e-03 2.948171e-03
6.184047e-04 2.304087e-03 1.596163e-04
-5.766549e-04 1.933381e-03 -2.242338e-04
-8.193102e-04 3.521037e-03 -8.533554e-04
-5.122944e-04 1.681598e-03 2.139421e-04
-3.598004e-04 2.063154e-03 2.182346e-04
2.156203e-04 -2.833546e-04 3.862370e-05
1.038322e-03 1.256133e-03 2.241086e-04
1.035093e-03 8.837632e-04 2.299343e-04
5.765311e-04 3.325260e-04 1.281471e-04
6.592641e-04 6.774934e-04 1.180874e-04
1.433054e-05 1.432628e-02 -5.411149e-03
-4.684864e-04 1.175179e-02 -4.361227e-03
5.914146e-05 8.890045e-03 -3.094571e-03
9.310208e-05 3.345596e-05 7.674748e-05
-2.263016e-04 4.526327e-02 -1.758156e-02
2.488848e-03 1.973911e-03 1.705943e-03
1.787544e-04 4.098318e-03 -5.195838e-04
-2.646056e-05 -2.277429e-04 3.279875e-05
1.626733e-04 -1.098894e-04 6.599020e-05
2.055732e-04 -1.992376e-04 5.473417e-05
3.513811e-04 2.801343e-04 1.031296e-04
-1.300835e-04 -1.379200e-04 4.246815e-05
3.281349e-04 -2.414935e-04 5.992580e-05
-7.298306e-04 5.277988e-04 9.337026e-05
-1.423802e-04 5.875789e-04 5.857324e-05
-4.364884e-04 1.712792e-03 2.655858e-04
-1.483750e-03 9.016300e-03 -2.627893e-03
-1.817370e-03 1.313603e-02 -2.431728e-03
-2.744681e-03 3.066746e-02 -6.575065e-03
-1.874390e-03 1.897831e-02 -5.763986e-03
1.140747e-03 2.934663e-03 4.776300e-04
8.416721e-05 6.324865e-03 -8.018234e-05
-5.791857e-04 6.847856e-03 -1.946220e-03
8.545207e-04 2.275857e-03 4.312215e-05
9.364898e-04 1.762099e-03 1.098853e-04
5.951008e-04 2.927233e-05 1.210848e-04
-1.871096e-04 3.471950e-02 -1.089518e-02
4.640339e-03 2.546977e-03 5.202947e-03
7.957167e-04 2.425686e-03 -1.298954e-04
7.050334e-04 3.128673e-03 -2.885116e-04
-2.465890e-05 3.412402e-03 -4.214710e-04
6.740925e-04 -2.009779e-05 1.291573e-04
4.974203e-04 -1.041146e-04 9.684003e-05
-6.055683e-04 1.958038e-02 -7.004465e-03
-6.606300e-04 2.068598e-03 6.185584e-06
1.130261e-04 8.569964e-03 -3.112105e-03
-3.336722e-04 1.102406e-03 -1.297372e-05
2.980654e-04 6.059294e-03 -1.885437e-03
3.477366e-04 2.443809e-03 1.537371e-04
-6.394957e-04 5.141006e-03 -1.101080e-03
-1.125577e-03 1.039727e-03 7.225603e-05
3.682739e-04 -2.107242e-04 6.885549e-05
3.646176e-04 -1.804549e-04 7.265987e-05
-2.011748e-04 4.129641e-03 -5.332385e-04
1.143522e-04 3.209342e-03 -1.039639e-04
-1.719859e-03 1.902984e-03 -6.688310e-05
-5.717649e-04 2.327642e-03 5.186183e-05
-7.420430e-04 2.861152e-03 -2.556387e-04
-9.072715e-04 3.543666e-03 -6.762878e-04
-1.018071e-03 4.298269e-03 -1.060413e-03
-6.781094e-04 3.453099e-03 -8.824486e-04
2.137787e-04 1.080052e-03 9.645490e-07
-9.745849e-04 6.155788e-03 -1.415559e-03
-3.547708e-03 1.481985e-02 -5.741801e-03
4.665527e-05 2.391067e-02 -8.981825e-03
-7.692848e-04 1.184356e-02 -4.533595e-03
-1.470104e-03 6.744475e-02 -1.532980e-02
-2.625618e-04 1.576591e-06 5.641616e-05
5.305695e-04 1.037829e-03 4.993089e-05
-8.626318e-04 2.808846e-03 -5.346728e-04
-7.847904e-04 4.010004e-03 -6.876559e-04
-1.055544e-05 2.380675e-04 8.704558e-05
3.076337e-04 6.004336e-04 7.418056e-05
-1.123118e-03 5.172611e-03 -1.441929e-03
-2.582204e-03 3.482211e-03 -5.072657e-04
6.826585e-04 2.763340e-03 -3.959411e-05
3.920540e-04 -8.251909e-05 8.815437e-05
4.221777e-04 3.087127e-03 -9.505218e-05
4.946440e-04 3.733165e-03 -4.384531e-04
5.148391e-04 4.389527e-03 -8.908970e-04
6.170440e-04 3.325139e-03 -5.145333e-04
-6.338471e-04 3.183961e-03 -2.626074e-04
-4.617374e-04 2.060865e-04 7.804133e-05
-8.515967e-04 3.171407e-03 -7.912461e-04
8.110673e-04 4.843067e-04 1.646974e-04
-4.218423e-04 2.794968e-03 -2.115428e-05
9.438273e-04 1.264359e-03 1.541947e-04
7.672491e-04 1.161229e-03 9.094685e-05
8.983937e-04 8.386795e-04 1.692562e-04
8.071716e-04 1.742400e-03 8.453974e-06
1.995048e-04 -2.572689e-04 4.209289e-05
-1.191950e-05 5.003006e-03 -1.498621e-03
2.711533e-03 5.806438e-04 2.139240e-03
1.149960e-03 -7.085837e-04 4.974398e-04
1.614203e-03 -2.484812e-04 8.882115e-04
1.345450e-03 -1.171496e-03 1.180329e-03
-3.861295e-05 -3.368787e-04 -4.856898e-06
6.663518e-06 -3.216907e-04 6.898717e-06
-7.138459e-05 -3.259448e-04 -4.161586e-06
3.042874e-05 -3.324348e-04 6.171658e-06
2.699549e-03 -5.577181e-03 1.188459e-02
4.209692e-02 1.608436e-02 2.492002e-02
1.368001e-02 -2.054167e-03 2.062687e-02
-2.789439e-02 -9.977757e-04 -6.932892e-03
-3.673727e-02 4.948445e-03 -3.969446e-02
2.911125e-03 4.966162e-02 -4.929812e-02
2.067309e-03 -2.810235e-04 1.758719e-03
1.693189e-03 -2.158749e-03 4.054143e-03
1.455374e-03 -1.753120e-03 2.260579e-03
2.574872e-03 -3.284566e-04 3.064731e-03
2.043216e-03 -3.366396e-03 7.208547e-03
3.688370e-03 3.666147e-04 5.036849e-03
5.955795e-03 1.250491e-03 9.183182e-03
1.342203e-02 1.681081e-02 1.770856e-02
7.823359e-03 4.594444e-03 1.205761e-02
1.648341e-02 3.732003e-02 1.409327e-02
6.719638e-02 8.079514e-02 -2.959284e-02
4.341717e-02 8.176023e-02 -5.211494e-02
1.316994e-02 7.538877e-02 -1.156630e-02
4.406776e-03 9.658164e-02 -1.595304e-02
2.243685e-02 1.103760e-01 -6.444280e-02
2.878767e-03 8.803493e-02 -2.208983e-02
-7.453365e-03 3.032161e-02 -1.535004e-02
-9.973810e-04 6.183106e-02 -2.451331e-02