# vtk DataFile Version 2.0
Simplicial Mesh Example
ASCII
DATASET UNSTRUCTURED_GRID
POINTS 9196 double
3.320296e+05 -1.479713e+05 -5.000000e+04
3.230490e+05 -1.698867e+05 -2.450301e+04
3.473967e+05 -1.610091e+05 -2.499295e+04
3.230191e+05 -1.453594e+05 -2.376374e+04
3.000000e+05 -1.659466e+05 0.000000e+00
3.323841e+05 -1.500853e+05 0.000000e+00
3.000000e+05 -1.298234e+05 -5.000000e+04
3.211390e+05 -1.219510e+05 -2.456343e+04
3.000000e+05 -1.488492e+05 -2.774542e+04
3.000000e+05 -1.638587e+05 -5.000000e+04
-3.410447e+05 -3.313729e+05 -5.000000e+04
-3.562722e+05 -3.568159e+05 -2.596779e+04
-3.399470e+05 -3.173800e+05 -2.518749e+04
-3.709613e+05 -3.293268e+05 -2.460153e+04
8.320003e+04 -3.000000e+05 -2.235380e+04
1.000000e+05 -3.000000e+05 0.000000e+00
8.376766e+04 -3.323560e+05 0.000000e+00
1.022059e+05 -3.232166e+05 -2.436054e+04
9.218191e+04 -3.479439e+05 -2.506288e+04
7.450652e+04 -3.246631e+05 -2.586070e+04
8.376391e+04 -3.320935e+05 -5.000000e+04
1.000000e+05 -3.000000e+05 -5.000000e+04
6.666667e+04 -3.000000e+05 -5.000000e+04
4.909161e+04 -3.211949e+05 -2.159753e+04
-3.000000e+05 -2.284991e+05 -5.000000e+04
-3.319474e+05 -2.124896e+05 -5.000000e+04
-3.218152e+05 -2.373449e+05 -2.716838e+04
-3.186433e+05 -2.130922e+05 -3.089857e+04
3.680760e+05 -6.909438e+04 0.000000e+00
3.760404e+05 -8.535114e+04 -2.432411e+04
3.481610e+05 -6.095230e+04 -2.499963e+04
3.758419e+05 -5.047205e+04 -2.434620e+04
-3.000000e+05 -2.326501e+05 0.000000e+00
-3.000000e+05 -2.125115e+05 -2.265069e+04
-3.000000e+05 -1.989752e+05 0.000000e+00
-3.227151e+05 -1.919352e+05 -2.817559e+04
-3.324295e+05 -2.170264e+05 0.000000e+00
-2.490803e+05 -3.000000e+05 -2.221961e+04
-2.515393e+05 -3.324613e+05 0.000000e+00
-2.666667e+05 -3.000000e+05 0.000000e+00
-2.738346e+05 -3.252416e+05 -2.491374e+04
3.676956e+05 -6.866168e+04 -5.000000e+04
4.000000e+05 -8.695652e+04 -5.000000e+04
4.000000e+05 -5.217391e+04 -5.000000e+04
4.000000e+05 -6.957979e+04 -2.232138e+04
-2.333333e+05 -3.000000e+05 -5.000000e+04
-2.666667e+05 -3.000000e+05 -5.000000e+04
-2.512538e+05 -3.321783e+05 -5.000000e+04
-2.508504e+05 -3.238766e+05 -2.894778e+04
-2.288410e+05 -3.237531e+05 -2.554757e+04
-2.332968e+05 -3.501801e+05 -2.524712e+04
-1.499969e+05 -3.000000e+05 -2.764283e+04
-1.666667e+05 -3.000000e+05 0.000000e+00
-1.716166e+05 -3.233333e+05 -2.542063e+04
-1.478789e+05 -3.226382e+05 -2.533861e+04
-1.507909e+05 -3.323848e+05 0.000000e+00
-1.630826e+05 -3.498393e+05 -2.503121e+04
-1.507405e+05 -3.321164e+05 -5.000000e+04
-1.194653e+05 -3.220088e+05 -2.222167e+04
-1.333333e+05 -3.000000e+05 -5.000000e+04
-1.666667e+05 -3.000000e+05 -5.000000e+04
-1.043477e+05 4.000000e+05 -2.232281e+04
-1.038755e+05 3.680862e+05 0.000000e+00
-1.217391e+05 4.000000e+05 0.000000e+00
-1.224620e+05 3.788441e+05 -2.436654e+04
-1.217391e+05 4.000000e+05 -5.000000e+04
-9.211340e+04 3.779330e+05 -2.656844e+04
-6.923876e+04 -3.678233e+05 -5.000000e+04
-8.695652e+04 -4.000000e+05 -5.000000e+04
-5.217391e+04 -4.000000e+05 -5.000000e+04
-6.956714e+04 -4.000000e+05 -2.232106e+04
-1.249943e+05 3.519836e+05 -2.486759e+04
-1.038072e+05 3.678091e+05 -5.000000e+04
-1.739130e+04 -4.000000e+05 -5.000000e+04
-3.460350e+04 -3.678269e+05 -5.000000e+04
-3.478387e+04 -4.000000e+05 -2.232106e+04
-1.651509e+04 -3.754742e+05 -2.442335e+04
-8.376345e+04 3.320934e+05 -5.000000e+04
-1.000000e+05 3.000000e+05 -5.000000e+04
-8.343627e+04 3.000000e+05 -2.764981e+04
-1.026187e+05 3.239050e+05 -2.445309e+04
-6.666667e+04 3.000000e+05 -5.000000e+04
-5.147032e+04 3.217565e+05 -2.303829e+04
4.000000e+05 3.304348e+05 -5.000000e+04
4.000000e+05 3.130499e+05 -2.232112e+04
4.000000e+05 3.478935e+05 -2.235349e+04
3.674886e+05 3.295924e+05 -2.467361e+04
-6.033593e+04 3.477011e+05 -2.439908e+04
-7.701272e+04 3.234532e+05 -1.862781e+04
-8.379954e+04 3.323534e+05 0.000000e+00
-9.028036e+04 3.505284e+05 -2.483995e+04
3.000000e+05 -8.185378e+04 -2.769067e+04
3.000000e+05 -6.540655e+04 0.000000e+00
3.219834e+05 -9.262369e+04 -2.356665e+04
3.212381e+05 -6.353317e+04 -2.568389e+04
3.320030e+05 -7.972620e+04 -5.000000e+04
3.000000e+05 -4.823862e+04 -2.768751e+04
3.000000e+05 -6.175270e+04 -5.000000e+04
3.319980e+05 -4.560520e+04 -5.000000e+04
1.000000e+05 3.000000e+05 0.000000e+00
1.285319e+05 3.220153e+05 -2.330358e+04
1.166485e+05 3.000000e+05 -2.764255e+04
9.924408e+04 3.212454e+05 -2.557582e+04
1.172876e+05 3.321041e+05 -5.000000e+04
1.000000e+05 3.000000e+05 -5.000000e+04
1.172617e+05 3.323725e+05 0.000000e+00
1.739130e+04 -4.000000e+05 -5.000000e+04
3.478141e+04 -4.000000e+05 -2.232106e+04
3.460470e+04 -3.678270e+05 -5.000000e+04
1.646691e+04 -3.753828e+05 -2.432691e+04
9.656745e+04 3.481700e+05 -2.494853e+04
3.680819e+05 1.387484e+05 0.000000e+00
3.789347e+05 1.274418e+05 -2.657151e+04
3.531101e+05 1.597755e+05 -2.518599e+04
3.792098e+05 1.574583e+05 -2.441774e+04
4.000000e+05 1.565217e+05 0.000000e+00
4.000000e+05 1.391303e+05 -2.231930e+04
6.857177e+00 3.678309e+05 -5.000000e+04
1.673721e+04 3.320840e+05 -5.000000e+04
3.460423e+04 3.678269e+05 -5.000000e+04
2.880282e+04 3.508021e+05 -2.489257e+04
-3.461370e+04 -3.681008e+05 0.000000e+00
-1.739130e+04 -4.000000e+05 0.000000e+00
-1.676283e+04 3.320851e+05 -5.000000e+04
1.537478e+03 3.361402e+05 -2.528450e+04
3.679848e+05 1.390962e+05 -5.000000e+04
-4.999978e+04 -3.000000e+05 -2.235748e+04
-1.678469e+04 -3.000000e+05 -2.764887e+04
-1.676668e+04 -3.323444e+05 0.000000e+00
-5.499684e+04 -3.228669e+05 -2.776930e+04
4.000000e+05 1.565217e+05 -5.000000e+04
3.676239e+05 -2.421373e+05 -5.000000e+04
4.000000e+05 -2.434785e+05 -2.767896e+04
3.747803e+05 -2.281317e+05 -2.552755e+04
3.782485e+05 -2.607848e+05 -2.580555e+04
-3.128530e+05 -3.661813e+05 -5.000000e+04
-2.847026e+05 -3.321560e+05 -5.000000e+04
-3.161470e+05 -3.277621e+05 -5.000000e+04
-3.120399e+05 -3.401367e+05 -2.465985e+04
3.512666e+05 -2.655302e+05 -2.501422e+04
3.679951e+05 -2.423193e+05 0.000000e+00
4.000000e+05 -2.608696e+05 0.000000e+00
-1.455192e-10 3.000000e+05 -5.000000e+04
-1.665884e+04 3.000000e+05 -2.764283e+04
1.678621e+04 3.000000e+05 -2.764891e+04
3.000000e+05 -2.490234e+05 -2.248769e+04
3.324577e+05 -2.511100e+05 0.000000e+00
3.238293e+05 -2.640014e+05 -2.441041e+04
3.212088e+05 -2.325011e+05 -2.423874e+04
3.320637e+05 -2.503757e+05 -5.000000e+04
3.463683e+05 -2.303855e+05 -2.500317e+04
-3.698054e+05 -3.472763e+05 0.000000e+00
-3.663396e+05 -3.129808e+05 0.000000e+00
-3.315797e+05 -3.410949e+05 0.000000e+00
3.000000e+05 -2.319293e+05 -5.000000e+04
1.730839e+05 3.678997e+05 -5.000000e+04
1.571942e+05 3.749461e+05 -2.554585e+04
1.947972e+05 3.532715e+05 -2.489915e+04
1.912984e+05 3.786912e+05 -2.581857e+04
1.913043e+05 4.000000e+05 -5.000000e+04
1.739026e+05 4.000000e+05 -2.767885e+04
3.704421e+05 3.503181e+05 -5.000000e+04
-3.674293e+05 -2.066073e+05 -5.000000e+04
-3.494471e+05 -2.292202e+05 -2.526698e+04
-3.497009e+05 -1.977915e+05 -2.539897e+04
1.731007e+05 3.680556e+05 0.000000e+00
1.913043e+05 4.000000e+05 0.000000e+00
4.000000e+05 2.956522e+05 0.000000e+00
4.000000e+05 2.782599e+05 -2.232106e+04
3.700232e+05 2.952130e+05 -2.459328e+04
-2.177434e+05 -3.321524e+05 -5.000000e+04
-2.166738e+05 -3.000000e+05 -2.767207e+04
-2.002275e+05 -3.215730e+05 -2.585451e+04
-1.985707e+05 -3.482959e+05 -2.510962e+04
-2.179099e+05 -3.324288e+05 0.000000e+00
-2.000000e+05 -3.000000e+05 0.000000e+00
-4.000000e+05 -1.739130e+04 -5.000000e+04
-4.000000e+05 1.362271e+00 -2.232106e+04
-4.000000e+05 -3.478139e+04 -2.232106e+04
-3.764375e+05 -1.615686e+04 -2.441389e+04
-1.172644e+05 3.321057e+05 -5.000000e+04
-1.165333e+05 3.000000e+05 -2.235380e+04
-1.172626e+05 3.323723e+05 0.000000e+00
-1.351151e+05 3.242796e+05 -2.432698e+04
-1.000000e+05 3.000000e+05 0.000000e+00
3.000000e+05 -1.154172e+05 -2.769106e+04
3.000000e+05 -9.891990e+04 0.000000e+00
3.323674e+05 -1.164140e+05 0.000000e+00
3.494970e+05 -9.661460e+04 -2.478315e+04
3.320115e+05 -1.138445e+05 -5.000000e+04
3.000000e+05 -9.578803e+04 -5.000000e+04
-3.683842e+05 -3.117444e+05 -5.000000e+04
-3.704229e+05 -3.502942e+05 -5.000000e+04
-3.000000e+05 -1.676695e+04 -5.000000e+04
-3.000000e+05 -3.162526e+04 0.000000e+00
-3.000000e+05 1.537267e+03 0.000000e+00
-3.215156e+05 -1.436666e+04 -2.547447e+04
-2.627419e+05 -3.499829e+05 -2.513924e+04
-3.324526e+05 -2.845988e+05 0.000000e+00
-3.280582e+05 -3.160567e+05 0.000000e+00
-2.333333e+05 -3.000000e+05 0.000000e+00
-1.731007e+05 -3.680556e+05 0.000000e+00
-1.545447e+05 -3.761882e+05 -2.496605e+04
-1.738957e+05 -4.000000e+05 -2.758994e+04
-1.892592e+05 -3.758330e+05 -2.503546e+04
-2.077253e+05 -3.680332e+05 0.000000e+00
-2.238681e+05 -3.761511e+05 -2.500739e+04
-1.913043e+05 -4.000000e+05 -5.000000e+04
-2.086560e+05 -4.000000e+05 -2.240978e+04
-1.730589e+05 -3.677722e+05 -5.000000e+04
6.957979e+04 4.000000e+05 -2.232138e+04
5.217391e+04 4.000000e+05 0.000000e+00
3.478536e+04 4.000000e+05 -2.232108e+04
5.076709e+04 3.763881e+05 -2.432357e+04
5.217391e+04 4.000000e+05 -5.000000e+04
1.674987e+04 3.323474e+05 0.000000e+00
3.500461e+04 3.242904e+05 -2.486949e+04
3.461320e+04 3.681000e+05 0.000000e+00
4.999984e+04 3.000000e+05 -2.235747e+04
3.333333e+04 3.000000e+05 0.000000e+00
1.624297e+04 3.760050e+05 -2.438535e+04
-3.680268e+05 2.424010e+05 0.000000e+00
-3.501061e+05 2.289790e+05 -2.510660e+04
-3.680500e+05 2.077851e+05 0.000000e+00
-3.762767e+05 2.231686e+05 -2.569080e+04
6.044606e+04 3.500124e+05 -2.491520e+04
-1.731195e+05 3.680519e+05 0.000000e+00
-1.545405e+05 3.762789e+05 -2.429555e+04
-1.611352e+05 3.500581e+05 -2.482426e+04
-1.910310e+05 3.748826e+05 -2.441742e+04
-1.384382e+05 3.677954e+05 -5.000000e+04
-4.000000e+05 2.260870e+05 0.000000e+00
-4.000000e+05 2.086964e+05 -2.767894e+04
-1.565217e+05 4.000000e+05 -5.000000e+04
-1.391303e+05 4.000000e+05 -2.231930e+04
-1.739120e+05 4.000000e+05 -2.232105e+04
-2.883046e+05 -3.320639e+05 0.000000e+00
-3.323717e+05 -1.156481e+05 0.000000e+00
-3.489067e+05 -1.010526e+05 -2.439261e+04
-3.250615e+05 -9.110468e+04 -2.328549e+04
-3.294786e+05 -1.230635e+05 -2.464286e+04
[...]
POINT_DATA 9196
VECTORS displacement double
-3.205742e-04 6.631609e-04 -9.543371e-05
-2.409922e-04 7.169116e-04 -8.185200e-05
-2.017856e-04 6.893267e-04 -8.757901e-05
-3.834044e-04 6.695891e-04 -1.075009e-04
-3.567393e-04 7.435298e-04 -9.737610e-05
-3.127763e-04 6.952123e-04 -1.075210e-04
-6.140496e-04 6.342561e-04 -1.143605e-04
-5.160063e-04 5.999667e-04 -1.277808e-04
-4.839489e-04 6.910824e-04 -1.054116e-04
-3.673883e-04 7.092191e-04 -8.253282e-05
-8.900762e-04 -1.069509e-04 4.221643e-05
-6.257040e-04 4.893119e-05 2.180068e-04
-8.582712e-04 -6.394897e-05 -4.471015e-05
-4.306800e-04 1.928821e-04 9.947921e-05
2.100107e-03 -8.462395e-04 -2.219234e-05
1.905269e-03 -4.682374e-04 6.746661e-05
2.223438e-03 -5.200997e-04 1.831748e-04
2.125606e-03 -4.364532e-04 1.477012e-04
2.292875e-03 -4.062371e-04 2.215071e-04
2.308876e-03 -8.072710e-04 8.570742e-05
2.365282e-03 -6.473600e-04 1.282771e-04
2.078430e-03 -6.070003e-04 1.323304e-05
2.338579e-03 -1.229930e-03 -1.238915e-04
2.389214e-03 -1.288883e-03 -3.721524e-05
-1.485306e-03 -1.000879e-03 -1.378341e-03
-8.185708e-04 2.598444e-04 -1.065100e-03
-1.073697e-03 -3.761484e-04 -1.001850e-03
-9.965142e-04 -3.944902e-04 -1.255846e-03
-2.868454e-04 3.465753e-04 -1.578247e-04
-1.977703e-04 4.213266e-04 -1.403704e-04
-4.781200e-04 2.999371e-04 -1.556975e-04
-2.261870e-04 2.348057e-04 -1.535296e-04
-1.103940e-03 -1.168459e-03 -1.331338e-03
-1.262708e-03 -1.315809e-03 -1.589658e-03
-8.571745e-04 -1.380800e-03 -1.638058e-03
-6.756120e-04 -1.217350e-04 -1.295035e-03
-6.064873e-04 9.722379e-05 -1.054112e-03
-1.656540e-03 -2.502979e-03 -9.346928e-04
-1.338907e-03 -1.326789e-03 -2.934566e-04
-1.407638e-03 -1.617946e-03 -6.790326e-04
-1.478593e-03 -1.194449e-03 -3.046354e-04
-2.889481e-04 3.330334e-04 -1.379455e-04
0.000000e+00 4.219369e-04 -1.275149e-04
0.000000e+00 2.415014e-04 -1.400667e-04
0.000000e+00 3.384302e-04 -1.466865e-04
-1.818768e-03 -3.133833e-03 -1.082412e-03
-1.761100e-03 -1.906631e-03 -7.360765e-04
-1.621457e-03 -1.668959e-03 -3.742348e-04
-1.551694e-03 -1.849146e-03 -5.015766e-04
-1.492497e-03 -2.429005e-03 -6.733205e-04
-1.371344e-03 -1.457822e-03 -2.433322e-04
-3.812993e-04 -5.851022e-03 -1.946830e-03
-6.556225e-04 -4.787986e-03 -1.729096e-03
-7.637940e-04 -3.744411e-03 -1.035814e-03
-2.529016e-04 -4.203431e-03 -1.157297e-03
-2.598548e-04 -3.093482e-03 -8.061940e-04
-5.046645e-04 -2.434797e-03 -5.034534e-04
-3.298264e-04 -3.665110e-03 -8.815583e-04
4.249067e-04 -4.343745e-03 -1.172865e-03
3.876798e-05 -5.958392e-03 -1.891044e-03
-8.651397e-04 -5.425944e-03 -1.774336e-03
1.117781e-03 0.000000e+00 8.126762e-04
1.127771e-03 1.043643e-03 8.431202e-04
9.228756e-04 0.000000e+00 8.850348e-04
8.836933e-04 7.359621e-04 8.141146e-04
8.988265e-04 0.000000e+00 7.667037e-04
1.257157e-03 7.370309e-04 7.812137e-04
1.481496e-03 -1.555884e-03 -1.427693e-04
1.118910e-03 0.000000e+00 -4.306855e-05
1.763061e-03 0.000000e+00 4.180978e-05
1.385502e-03 0.000000e+00 3.159118e-05
8.211676e-04 1.685566e-03 7.674856e-04
1.104909e-03 1.137411e-03 7.234219e-04
2.234652e-03 0.000000e+00 1.335988e-04
2.050216e-03 -1.299729e-03 -2.743582e-05
1.923332e-03 0.000000e+00 1.233931e-04
2.157781e-03 -8.440181e-04 9.884886e-05
1.319599e-03 2.353019e-03 6.078820e-04
1.041971e-03 3.703275e-03 4.264552e-04
1.262151e-03 3.415929e-03 4.681150e-04
1.057019e-03 2.652504e-03 6.336945e-04
1.495789e-03 3.347051e-03 4.242463e-04
1.667075e-03 2.319011e-03 5.977530e-04
0.000000e+00 -2.856539e-04 9.396727e-05
0.000000e+00 -3.596116e-04 9.450323e-05
0.000000e+00 -2.224287e-04 1.084971e-04
2.185976e-04 -2.915613e-04 1.046366e-04
1.589095e-03 1.586857e-03 6.941691e-04
1.380496e-03 2.474078e-03 6.332757e-04
1.324887e-03 2.140598e-03 7.244502e-04
1.258400e-03 1.648877e-03 7.322939e-04
-8.813939e-04 4.334230e-04 -1.574733e-04
-9.390803e-04 3.499040e-04 -1.776681e-04
-6.357373e-04 4.760003e-04 -1.494071e-04
-7.309381e-04 3.209591e-04 -1.605622e-04
-5.888639e-04 4.012528e-04 -1.395538e-04
-9.855191e-04 2.407984e-04 -1.681290e-04
-9.570980e-04 3.229108e-04 -1.532434e-04
-6.579920e-04 2.152595e-04 -1.495929e-04
1.917480e-03 6.311027e-04 4.017740e-04
1.840058e-03 3.170436e-04 3.567547e-04
1.806295e-03 5.020106e-04 3.483853e-04
1.974617e-03 5.636145e-04 4.056469e-04
1.926414e-03 3.740677e-04 3.601818e-04
1.897606e-03 7.074010e-04 3.468884e-04
1.969282e-03 3.302613e-04 4.163996e-04
2.497682e-03 0.000000e+00 2.201506e-04
2.453783e-03 0.000000e+00 2.859612e-04
2.548207e-03 -6.777859e-04 1.887526e-04
2.395315e-03 -5.957107e-04 2.056724e-04
2.070271e-03 4.045107e-04 4.420739e-04
-8.615302e-05 -6.447963e-04 -6.132779e-05
-7.631864e-05 -6.023907e-04 -6.923887e-05
-6.665682e-05 -6.447298e-04 -3.430132e-05
-3.246885e-05 -6.405369e-04 -3.829471e-05
0.000000e+00 -6.671373e-04 -4.264599e-05
0.000000e+00 -6.239284e-04 -6.003024e-05
2.067438e-03 7.320078e-04 5.971571e-04
2.114480e-03 1.339235e-03 5.152402e-04
2.168409e-03 5.516039e-04 5.397451e-04
2.149470e-03 8.526819e-04 5.714086e-04
1.862993e-03 -1.090558e-03 6.379559e-05
2.060829e-03 0.000000e+00 2.213030e-04
1.967030e-03 1.727757e-03 5.532663e-04
2.053105e-03 1.377755e-03 5.898950e-04
-9.381782e-05 -6.100019e-04 -5.374644e-05
1.922802e-03 -4.641333e-03 -1.266153e-03
2.335361e-03 -3.688232e-03 -9.054964e-04
2.068039e-03 -2.066534e-03 -2.379097e-04
1.827786e-03 -3.622173e-03 -8.074051e-04
0.000000e+00 -6.311860e-04 -3.608130e-05
6.244708e-05 6.620784e-04 -1.481740e-06
0.000000e+00 6.678068e-04 -1.864401e-06
2.174549e-05 7.004613e-04 -1.604856e-05
6.682532e-05 6.274175e-04 1.450440e-05
-1.193685e-03 -2.363099e-04 1.571243e-04
-1.503188e-03 -9.728853e-04 -1.814418e-04
-1.204920e-03 -4.272080e-04 -6.916643e-05
-1.161142e-03 -3.553321e-04 2.643518e-05
1.576125e-04 6.188019e-04 2.106468e-05
6.198604e-05 6.951079e-04 -2.925893e-06
0.000000e+00 6.498254e-04 1.517729e-05
2.027380e-03 2.262966e-03 4.292608e-04
1.915464e-03 2.482640e-03 4.687234e-04
2.047040e-03 1.903202e-03 4.595331e-04
2.483032e-04 6.600083e-04 1.357901e-05
1.733898e-04 6.789550e-04 1.118045e-05
2.507613e-04 6.217435e-04 2.550974e-05
1.041715e-04 6.939553e-04 -9.466982e-06
1.692685e-04 6.465396e-04 7.385831e-06
5.598344e-05 6.966301e-04 -1.386618e-05
-4.120671e-04 2.143824e-04 2.201994e-04
-4.617560e-04 3.665722e-04 1.104252e-05
-8.890563e-04 -3.899943e-06 1.221675e-04
1.353010e-04 6.837214e-04 -4.493767e-06
1.672181e-03 2.904120e-05 2.846617e-04
1.803077e-03 4.836902e-05 3.358554e-04
1.507519e-03 -2.115150e-05 2.639362e-04
1.570855e-03 -7.074765e-06 2.764313e-04
1.568179e-03 0.000000e+00 2.587819e-04
1.704984e-03 0.000000e+00 3.069647e-04
2.079230e-04 -2.044436e-04 1.033189e-04
-3.018153e-04 1.070121e-03 -8.205096e-04
-6.239991e-04 4.034861e-04 -8.184269e-04
-3.990071e-04 6.593179e-04 -1.006945e-03
1.725437e-03 1.622293e-05 3.281046e-04
1.621101e-03 0.000000e+00 2.980519e-04
0.000000e+00 -4.360714e-04 9.037643e-05
0.000000e+00 -4.787396e-04 7.267745e-05
1.724154e-04 -4.185348e-04 8.621179e-05
-1.449601e-03 -2.434584e-03 -5.834910e-04
-1.588524e-03 -3.787397e-03 -1.339981e-03
-1.233219e-03 -3.248705e-03 -9.365804e-04
-1.078687e-03 -2.061589e-03 -4.079322e-04
-1.194843e-03 -1.994362e-03 -4.898798e-04
-1.166228e-03 -3.867892e-03 -1.457115e-03
0.000000e+00 9.651963e-04 -4.763498e-04
0.000000e+00 9.595272e-04 -5.532417e-04
0.000000e+00 1.176684e-03 -5.505391e-04
8.545688e-04 1.072835e-03 -4.485580e-04
8.760840e-04 2.492875e-03 6.273055e-04
7.952139e-04 3.643269e-03 4.861514e-04
8.949011e-04 2.269435e-03 7.591080e-04
6.102523e-04 2.721651e-03 6.607135e-04
1.031562e-03 3.352524e-03 5.300645e-04
-7.040737e-04 5.871040e-04 -1.358884e-04
-7.919823e-04 5.291270e-04 -1.591354e-04
-4.625881e-04 5.883916e-04 -1.402579e-04
-3.968380e-04 4.811809e-04 -1.392446e-04
-4.696818e-04 5.538717e-04 -1.215049e-04
-8.188080e-04 5.012006e-04 -1.395863e-04
-5.076721e-04 2.076806e-04 -2.467555e-05
-4.567630e-04 8.105646e-05 1.839210e-04
4.681830e-03 1.330312e-03 1.238107e-03
3.456277e-03 2.069572e-03 1.189501e-03
2.467815e-03 2.820777e-03 5.642109e-04
2.953609e-03 1.461396e-03 3.682149e-04
-1.426273e-03 -9.851861e-04 -1.097259e-04
-8.525354e-04 5.433786e-07 -3.576618e-04
-9.109307e-04 -6.639027e-05 -7.234466e-05
-1.416993e-03 -2.725227e-03 -1.071590e-03
-5.843108e-04 -1.261391e-03 -1.584788e-04
-2.931571e-04 -1.147689e-03 -1.867692e-04
-6.231448e-04 0.000000e+00 -6.254280e-05
-8.761974e-04 -9.846831e-04 -1.323079e-04
-1.034523e-03 -1.001112e-03 -7.885947e-05
-1.242898e-03 -7.378278e-04 -4.219112e-05
-9.358725e-04 0.000000e+00 -5.989828e-05
-1.074774e-03 0.000000e+00 7.743371e-06
-6.794547e-04 -1.516003e-03 -2.359202e-04
2.187755e-03 0.000000e+00 5.259582e-04
2.236669e-03 0.000000e+00 5.961672e-04
2.183046e-03 0.000000e+00 6.001779e-04
2.190177e-03 3.289473e-04 5.558503e-04
2.188701e-03 0.000000e+00 5.180092e-04
2.117250e-03 1.222604e-03 6.023579e-04
2.122754e-03 1.217789e-03 5.146695e-04
2.207105e-03 5.025201e-04 6.225033e-04
2.053931e-03 1.346216e-03 4.442547e-04
2.066611e-03 1.537415e-03 4.921258e-04
2.132620e-03 4.540656e-04 6.249967e-04
-3.608251e-04 1.789251e-03 5.034855e-04
-6.335817e-04 2.205118e-03 3.431099e-04
-4.128131e-04 1.889714e-03 2.744722e-04
-3.146688e-04 1.955350e-03 3.480351e-04
2.159150e-03 6.268739e-04 5.137765e-04
2.771081e-04 1.044830e-03 8.939168e-04
4.877558e-04 8.262417e-04 8.346941e-04
3.564737e-04 1.742304e-03 7.860150e-04
7.931467e-05 8.280487e-04 8.481194e-04
6.663240e-04 1.170880e-03 7.542451e-04
0.000000e+00 1.722727e-03 4.195695e-04
0.000000e+00 1.886856e-03 2.673880e-04
4.662887e-04 0.000000e+00 7.860035e-04
6.908687e-04 0.000000e+00 8.475989e-04
2.849029e-04 0.000000e+00 8.671059e-04
-1.250141e-03 -6.528097e-04 -1.100021e-04
1.067886e-03 6.801138e-04 -6.532424e-04
1.393953e-03 1.385107e-03 -5.206009e-04
2.272470e-03 1.145818e-03 -9.722049e-05
1.085662e-03 8.752711e-04 -6.907574e-04
3.068354e-04 3.899795e-04 -1.040371e-03
-9.857771e-05 1.801056e-04 -1.210158e-03
7.729412e-05 9.932298e-04 -1.032353e-03
7.615996e-04 1.260400e-03 -8.833045e-04
7.271575e-04 1.318639e-03 -8.017391e-04
2.294564e-03 1.336565e-03 5.991299e-05
1.926754e-03 1.245860e-03 -1.516070e-04
2.175738e-03 1.394579e-03 -1.288466e-04
1.125012e-03 1.312958e-03 -4.524830e-04
-1.509488e-03 -1.416270e-03 -6.002151e-04
-1.198653e-03 -5.198194e-04 -2.342597e-04
-1.591338e-04 -5.659000e-04 -9.880646e-05
0.000000e+00 -6.125999e-04 -8.117497e-05
0.000000e+00 -5.467732e-04 -9.371943e-05
4.751910e-03 1.433165e-03 1.489675e-03
3.227055e-03 1.249540e-03 2.670269e-04
-1.487163e-05 -6.720887e-04 -2.101823e-05
-1.584812e-05 -6.339538e-04 -2.051109e-05
0.000000e+00 1.583137e-03 6.113775e-04
0.000000e+00 1.796257e-03 4.741457e-04
-2.619167e-04 1.782559e-03 5.457904e-04
-1.658943e-04 -5.364567e-04 -8.493340e-05
-1.739791e-04 -6.008370e-04 -7.202146e-05
-1.257302e-04 -5.115616e-04 -1.005886e-04
1.797072e-03 6.751346e-05 2.637092e-04
1.916017e-03 1.177735e-05 2.632478e-04
1.567020e-03 1.282004e-04 2.070876e-04
1.626770e-03 6.402654e-05 2.261487e-04
1.508612e-03 1.231096e-04 2.211790e-04
1.286719e-03 1.966782e-04 1.745515e-04
1.330165e-03 9.643082e-05 1.865204e-04
1.497138e-03 1.036533e-04 1.897114e-04
1.347167e-03 1.181748e-03 -3.568198e-04
0.000000e+00 1.361165e-03 -5.058238e-04
3.052088e-04 5.722476e-04 4.654270e-05
2.709144e-04 4.879686e-04 5.341224e-05
4.275211e-04 4.373556e-04 7.606464e-05
3.825762e-04 5.108147e-04 5.724901e-05
1.389392e-03 0.000000e+00 2.061560e-04
1.522469e-03 0.000000e+00 2.162216e-04
9.571717e-04 4.446715e-04 1.182339e-04
1.017116e-03 3.285711e-04 1.435338e-04
1.279822e-03 2.790200e-04 1.762062e-04
1.084007e-03 3.231475e-04 1.394965e-04
1.371309e-03 0.000000e+00 1.790593e-04
-2.004372e-04 0.000000e+00 8.070109e-04
-9.585697e-05 1.048126e-03 7.804289e-04
-5.185515e-05 0.000000e+00 8.777942e-04
-2.052260e-04 6.728713e-04 8.592146e-04
1.321180e-03 2.385841e-04 1.298012e-04
1.435563e-03 1.930695e-04 1.440850e-04
1.806018e-03 3.526520e-05 2.212320e-04
1.539381e-03 1.885465e-04 2.028532e-04
-2.650028e-04 1.474267e-03 8.119669e-04
-6.623223e-05 9.582596e-04 9.064249e-04
-1.769472e-04 0.000000e+00 9.364924e-04
1.269571e-03 1.791240e-03 -3.243873e-04
2.074017e-03 1.547397e-03 7.003394e-06
8.067234e-04 1.140932e-03 -5.238396e-04
1.316521e-03 1.213045e-03 -3.629148e-04
-3.312254e-04 9.257845e-04 7.868915e-04
-4.154325e-04 1.106242e-03 8.354182e-04
-2.741272e-04 -6.088579e-04 -8.213753e-05
-2.981632e-04 -5.191843e-04 -1.027705e-04
-4.228481e-04 -5.282813e-04 -1.003017e-04
-2.348709e-04 -6.190419e-04 -6.590396e-05
-2.708332e-04 -5.835105e-04 -6.860534e-05
-5.145264e-04 -5.673593e-04 -9.867588e-05
-7.241866e-04 2.520758e-03 -6.366011e-04
-6.558273e-04 2.106954e-03 -4.888820e-04
-8.857066e-04 2.573461e-03 -3.638443e-04
-1.129509e-03 2.954796e-03 -6.553158e-04
0.000000e+00 1.501976e-03 -8.798716e-04
7.287529e-04 1.354714e-03 -7.352177e-04
3.547235e-04 1.299379e-03 -9.213999e-04
4.499683e-04 1.570535e-03 -7.991559e-04
9.802053e-04 1.791831e-03 -6.207355e-04
0.000000e+00 1.879429e-03 -7.563136e-04
4.994835e-04 1.742552e-03 -8.143486e-04
9.492665e-04 1.517842e-03 -5.916431e-04
0.000000e+00 1.612485e-03 -7.674467e-04
1.298429e-04 1.436528e-03 -9.306458e-04
-1.123154e-03 2.767554e-03 -1.406532e-04
-1.068462e-03 2.884708e-03 2.002734e-05
-7.327673e-04 2.329726e-03 8.478197e-05
-1.175059e-03 3.010000e-03 -3.326636e-04
1.342521e-05 7.036650e-04 -2.692156e-05
-7.361530e-05 7.229071e-04 -5.314003e-05
-1.517019e-04 7.126239e-04 -6.309115e-05
-6.584485e-05 7.299432e-04 -4.687989e-05
-1.471557e-03 3.785203e-03 -3.939243e-04
-1.499133e-03 3.707008e-03 -2.015374e-04
-1.584491e-03 3.970464e-03 -8.194262e-04
-1.738669e-03 3.919540e-03 -6.218540e-04
-1.119296e-03 2.631995e-03 -4.556070e-04
1.007662e-03 2.325599e-04 1.404516e-04
-7.598616e-04 2.294377e-03 -2.136328e-04
1.740376e-03 3.059324e-04 3.437230e-04
1.608097e-03 2.066847e-04 2.952071e-04
1.638695e-03 1.068164e-04 2.991299e-04
1.779742e-03 1.303071e-04 3.504619e-04
1.903705e-03 2.046747e-04 3.739321e-04
1.731753e-03 1.667733e-04 3.008059e-04
1.710694e-03 3.595951e-04 3.002416e-04
-2.625733e-04 1.995588e-04 -1.176939e-03
7.788504e-04 -1.687669e-03 -2.327287e-04
1.109453e-03 -1.173096e-03 -1.124944e-04
9.486534e-04 -2.678683e-03 -4.722938e-04
4.060333e-04 -1.216389e-03 -1.775839e-04
2.320675e-05 -1.412373e-03 -1.903031e-04
1.665823e-05 0.000000e+00 -7.274460e-05
6.985836e-04 -1.419387e-03 -1.426200e-04
1.836271e-04 -2.630975e-03 -5.263063e-04
7.215771e-04 0.000000e+00 -4.048565e-05
3.482905e-04 0.000000e+00 -5.619136e-06
1.196816e-03 1.382417e-04 1.562034e-04
1.276196e-03 2.443101e-04 1.541192e-04
2.060647e-03 -1.925911e-05 2.971728e-04
1.971903e-03 0.000000e+00 2.954402e-04
2.097055e-03 0.000000e+00 2.953587e-04
2.177388e-03 -7.633790e-05 2.892740e-04
1.839079e-03 1.970990e-05 2.274410e-04
-9.775523e-04 2.651546e-03 1.512262e-04
-4.934305e-04 2.116162e-03 2.026143e-04
2.091725e-03 -5.805277e-05 2.495223e-04
1.984202e-03 0.000000e+00 2.564545e-04
1.802901e-03 3.925497e-05 2.252855e-04
0.000000e+00 1.825849e-03 1.796576e-05
0.000000e+00 1.607273e-03 -9.527175e-05
0.000000e+00 1.630155e-03 -2.427996e-04
-3.532744e-04 1.852854e-03 -1.669167e-04
-5.296215e-04 2.049067e-03 -4.630705e-05
0.000000e+00 1.765243e-03 -1.118277e-04
-4.876500e-04 1.811212e-03 -3.027800e-04
-3.826039e-04 1.720793e-03 -2.849153e-04
-2.848311e-04 1.612517e-03 -4.192021e-04
2.257607e-03 0.000000e+00 2.805161e-04
2.339920e-03 -2.121591e-04 2.623800e-04
2.387302e-03 -1.915958e-04 2.961229e-04
2.321606e-03 0.000000e+00 3.200198e-04
2.113767e-03 -1.693734e-04 2.436108e-04
2.273532e-03 -1.473547e-04 3.169982e-04
2.215307e-03 0.000000e+00 3.318462e-04
2.274348e-03 -1.507831e-03 -5.157185e-05
2.391573e-03 -5.726052e-04 2.640858e-04
2.214705e-03 -8.234265e-04 1.759734e-04
2.441986e-03 -1.143237e-03 9.057909e-05
0.000000e+00 1.595836e-03 -8.869598e-04
0.000000e+00 1.749399e-03 -8.498060e-04
-7.845972e-06 1.463957e-03 -9.192069e-04
0.000000e+00 1.413018e-03 -8.943510e-04
0.000000e+00 1.447195e-03 -9.365916e-04
2.557094e-05 1.170842e-03 -9.794966e-04
2.177538e-03 0.000000e+00 6.731390e-04
2.074268e-03 0.000000e+00 6.691265e-04
1.976001e-03 6.090594e-04 6.811796e-04
2.138476e-03 0.000000e+00 5.824269e-04
2.988357e-05 -6.614224e-04 -4.966301e-06
5.160141e-05 -6.362006e-04 4.372293e-06
-7.361524e-05 -6.384451e-04 -2.757065e-05
3.364129e-05 -6.164286e-04 -1.954537e-07
1.139116e-04 -6.155949e-04 1.635200e-05
-1.171413e-04 -6.223207e-04 -3.536590e-05
-5.458353e-05 -6.073217e-04 -1.065714e-05
-2.748665e-04 -5.976202e-04 -4.903467e-05
2.952024e-05 -6.219200e-04 -1.968356e-06
3.344295e-03 1.537817e-03 2.501638e-04
3.123079e-03 1.305336e-03 4.400924e-04
2.521757e-03 -1.133703e-03 3.917188e-05
2.333076e-03 -1.621435e-03 -2.329699e-04
1.898013e-03 1.022661e-03 -2.162117e-04
-1.701438e-03 3.818338e-03 -9.900203e-04
-8.595261e-04 2.289787e-03 -6.802989e-04
-1.149896e-03 3.400144e-03 -1.066148e-03
-8.284649e-04 2.728821e-03 -8.353424e-04
-1.040675e-03 4.132446e-03 -1.152945e-03
-3.155847e-04 2.373149e-03 -7.505080e-04
-7.939933e-04 2.395596e-03 4.019341e-04
-6.979127e-04 2.184613e-03 5.556378e-04
-5.161518e-04 1.939996e-03 5.534462e-04
-8.886600e-04 2.594926e-03 3.223039e-04
-6.201416e-04 1.971892e-03 5.764741e-04
-5.630357e-04 1.664372e-03 7.289002e-04
-4.177840e-04 1.561242e-03 6.958252e-04
-7.464950e-04 2.309964e-03 5.987489e-04
-5.398473e-04 1.731188e-03 7.047260e-04
1.718260e-03 -9.930976e-04 -9.275377e-06
1.340035e-03 -1.296412e-03 -5.721715e-05
1.607994e-03 0.000000e+00 1.280644e-04
2.057882e-03 -1.965084e-03 -1.643107e-04
1.592197e-03 -2.186255e-03 -2.908102e-04
-2.232237e-04 -4.373566e-04 -1.283328e-04
0.000000e+00 -4.220922e-04 -1.216248e-04
0.000000e+00 -3.561687e-04 -1.399046e-04
-1.681056e-04 -3.741777e-04 -1.268898e-04
-2.252341e-04 -4.143751e-04 -1.102497e-04
0.000000e+00 -4.759204e-04 -9.754005e-05
0.000000e+00 -5.071973e-04 -1.140491e-04
2.336659e-03 0.000000e+00 2.955597e-04
2.288653e-03 0.000000e+00 2.188766e-04
1.070281e-03 3.744984e-04 1.195710e-04
1.190388e-03 3.513397e-04 1.361137e-04
1.332512e-03 2.502753e-04 1.640409e-04
1.207649e-03 2.982057e-04 1.134038e-04
-2.851182e-04 3.147647e-03 6.262770e-04
-2.614632e-04 1.974644e-03 8.198991e-04
4.827649e-05 2.179297e-03 8.045090e-04
-2.028153e-04 2.489132e-03 7.012066e-04
1.045432e-03 1.218735e-03 -4.646488e-04
-4.482990e-04 2.161593e-03 7.321401e-04
-5.101689e-04 3.293425e-04 -1.575724e-04
-7.161014e-04 2.032687e-04 -5.282468e-04
-1.077220e-03 -3.264257e-04 -5.633507e-04
-3.187487e-04 2.167284e-03 6.931083e-04
-4.422149e-06 1.722147e-03 7.918526e-04
-4.673831e-04 3.118186e-03 5.873816e-04
7.088270e-06 2.389502e-03 6.679648e-04
-3.627852e-04 3.464855e-03 5.010977e-04
-1.375223e-04 3.470822e-03 5.449805e-04
-1.715736e-04 6.482941e-04 -1.102267e-04
0.000000e+00 6.298995e-04 -1.009474e-04
0.000000e+00 6.906666e-04 -9.028986e-05
-8.311774e-05 6.946300e-04 -8.117994e-05
-1.713559e-04 6.198531e-04 -9.708067e-05
-2.982563e-04 6.098060e-04 -1.151292e-04
0.000000e+00 6.937692e-04 -7.021872e-05
-9.017639e-05 7.227299e-04 -7.898094e-05
0.000000e+00 6.603207e-04 -8.181461e-05
2.554386e-03 0.000000e+00 2.745393e-04
2.473541e-03 -3.798524e-04 2.697001e-04
2.398807e-03 -3.387820e-04 3.041612e-04
2.439024e-03 0.000000e+00 3.376299e-04
2.430201e-03 -6.983036e-04 1.842562e-04
1.001427e-03 3.004689e-04 1.233533e-04
8.434116e-04 4.454330e-04 1.018486e-04
8.354430e-04 3.622870e-04 1.127447e-04
-4.231740e-04 -5.093296e-04 -1.175325e-04
-5.512034e-04 -4.348867e-04 -1.212527e-04
-8.083014e-04 -3.722852e-04 -1.368690e-04
-5.892401e-04 -2.668674e-04 -1.456900e-04
-5.350768e-04 -3.588806e-04 -1.218665e-04
-6.332814e-04 -4.871175e-04 -1.074379e-04
-7.253687e-04 -4.469072e-04 -1.323450e-04
7.442245e-04 -3.265533e-04 1.328490e-04
9.370060e-04 -2.642749e-04 1.584613e-04
8.438850e-04 -3.216986e-04 1.541534e-04
8.674318e-04 -2.425078e-04 1.535964e-04
1.026057e-03 -1.784801e-04 1.663931e-04
8.116076e-04 -2.948927e-04 1.316660e-04
7.873622e-04 -2.235305e-04 1.365971e-04
9.566630e-04 -1.571590e-04 1.700309e-04
1.060363e-03 -1.962622e-04 1.930798e-04
1.888437e-03 1.209535e-04 3.445858e-04
1.803623e-03 0.000000e+00 3.162953e-04
1.923822e-03 0.000000e+00 3.725285e-04