# vtk DataFile Version 2.0
Simplicial Mesh Example
ASCII
DATASET UNSTRUCTURED_GRID
POINTS 97 double
-1.460247e+05 -3.887590e+04 -5.000000e+03
-1.738435e+05 -5.126165e+04 -5.000000e+03
-1.384710e+05 -5.582752e+04 -1.571471e+04
-1.650004e+05 -5.240312e+04 -7.678677e+03
-1.561573e+05 -5.354459e+04 -1.035735e+04
-1.473141e+05 -5.468605e+04 -1.303603e+04
-1.637460e+05 -7.385600e+04 -1.928826e+04
-1.840501e+05 -1.032051e+05 -3.000000e+04
-1.182058e+05 -2.649016e+04 -5.000000e+03
-1.251605e+05 -2.958659e+04 -5.000000e+03
-1.232721e+05 -3.382450e+04 -7.678677e+03
-1.321152e+05 -3.268303e+04 -5.000000e+03
-1.302268e+05 -3.692093e+04 -7.678677e+03
-1.283384e+05 -4.115884e+04 -1.035735e+04
-1.390700e+05 -3.577947e+04 -5.000000e+03
-1.371815e+05 -4.001737e+04 -7.678677e+03
-1.441363e+05 -4.311381e+04 -7.678677e+03
-1.422478e+05 -4.735171e+04 -1.035735e+04
-1.352931e+05 -4.425528e+04 -1.035735e+04
-1.334047e+05 -4.849318e+04 -1.303603e+04
-1.403594e+05 -5.158962e+04 -1.303603e+04
-2.016624e+05 -6.364740e+04 -5.000000e+03
-1.662704e+05 -6.820741e+04 -1.571619e+04
-1.732251e+05 -7.130385e+04 -1.571619e+04
-1.687948e+05 -6.255882e+04 -1.214413e+04
-1.757495e+05 -6.565526e+04 -1.214413e+04
-1.827042e+05 -6.875170e+04 -1.214413e+04
-1.713191e+05 -5.691024e+04 -8.572065e+03
-1.782738e+05 -6.000667e+04 -8.572065e+03
-1.807982e+05 -5.435809e+04 -5.000000e+03
-1.877529e+05 -5.745452e+04 -5.000000e+03
-1.852286e+05 -6.310311e+04 -8.572065e+03
-1.921833e+05 -6.619955e+04 -8.572065e+03
-1.947076e+05 -6.055096e+04 -5.000000e+03
-1.284125e+05 -7.843358e+04 -3.000000e+04
-1.214577e+05 -7.533715e+04 -3.000000e+04
-1.145030e+05 -7.224071e+04 -3.000000e+04
-1.075483e+05 -6.914427e+04 -3.000000e+04
-1.005936e+05 -6.604784e+04 -3.000000e+04
-1.562313e+05 -9.081933e+04 -3.000000e+04
-1.372458e+05 -7.728919e+04 -2.732206e+04
-1.353672e+05 -8.153002e+04 -3.000000e+04
-1.460792e+05 -7.614479e+04 -2.464413e+04
-1.442005e+05 -8.038562e+04 -2.732206e+04
-1.423219e+05 -8.462646e+04 -3.000000e+04
-1.549126e+05 -7.500039e+04 -2.196619e+04
-1.530339e+05 -7.924123e+04 -2.464413e+04
-1.618673e+05 -7.809683e+04 -2.196619e+04
-1.599886e+05 -8.233766e+04 -2.464413e+04
-1.511553e+05 -8.348206e+04 -2.732206e+04
-1.492766e+05 -8.772289e+04 -3.000000e+04
-1.581100e+05 -8.657850e+04 -2.732206e+04
-1.770954e+05 -1.001086e+05 -3.000000e+04
-1.701407e+05 -9.701220e+04 -3.000000e+04
-1.631860e+05 -9.391577e+04 -3.000000e+04
-1.100630e+05 -6.349276e+04 -2.642868e+04
-1.195323e+05 -6.093768e+04 -2.285735e+04
-1.290017e+05 -5.838260e+04 -1.928603e+04
-1.447898e+05 -6.033464e+04 -1.660810e+04
-1.511085e+05 -6.484176e+04 -1.750148e+04
-1.574272e+05 -6.934888e+04 -1.839487e+04
-1.309271e+05 -7.278207e+04 -2.642868e+04
-1.334417e+05 -6.713055e+04 -2.285735e+04
-1.359564e+05 -6.147904e+04 -1.928603e+04
-1.492025e+05 -5.044815e+04 -1.035735e+04
-1.580457e+05 -4.930668e+04 -7.678677e+03
-1.668888e+05 -4.816521e+04 -5.000000e+03
-1.599341e+05 -4.506878e+04 -5.000000e+03
-1.510910e+05 -4.621024e+04 -7.678677e+03
-1.529794e+05 -4.197234e+04 -5.000000e+03
-1.789741e+05 -9.586781e+04 -2.732206e+04
-1.720194e+05 -9.277137e+04 -2.732206e+04
-1.738981e+05 -8.853054e+04 -2.464413e+04
-1.650647e+05 -8.967493e+04 -2.732206e+04
-1.669434e+05 -8.543410e+04 -2.464413e+04
-1.688220e+05 -8.119327e+04 -2.196619e+04
-1.536329e+05 -5.919317e+04 -1.392942e+04
-1.624760e+05 -5.805170e+04 -1.125074e+04
-1.599516e+05 -6.370029e+04 -1.482281e+04
-1.264870e+05 -6.403411e+04 -2.285735e+04
-1.239724e+05 -6.968563e+04 -2.642868e+04
-1.170177e+05 -6.658919e+04 -2.642868e+04
-1.138028e+05 -3.637958e+04 -1.125000e+04
-1.188691e+05 -4.371392e+04 -1.392868e+04
-1.093997e+05 -4.626900e+04 -1.750000e+04
-1.239354e+05 -5.104826e+04 -1.660735e+04
-1.144660e+05 -5.360334e+04 -2.017868e+04
-1.049967e+05 -5.615842e+04 -2.375000e+04
-1.485939e+05 -7.049327e+04 -2.107281e+04
-1.422751e+05 -6.598615e+04 -2.017942e+04
-1.397605e+05 -7.163767e+04 -2.375074e+04
-1.972593e+05 -7.353682e+04 -1.125000e+04
-1.928562e+05 -8.342624e+04 -1.750000e+04
-1.877802e+05 -7.608897e+04 -1.482206e+04
-1.884532e+05 -9.331566e+04 -2.375000e+04
-1.833772e+05 -8.597839e+04 -2.107206e+04
-1.783011e+05 -7.864112e+04 -1.839413e+04
CELLS 160 640
3  9 10 8
3  11 12 9
3  12 13 10
3  9 12 10
3  14 15 11
3  0 16 14
3  16 17 15
3  14 16 15
3  18 19 13
3  17 20 18
3  20 2 19
3  18 20 19
3  11 15 12
3  15 17 18
3  12 18 13
3  12 15 18
3  6 22 23
3  22 24 25
3  23 25 26
3  22 25 23
3  24 27 28
3  27 1 29
3  28 29 30
3  27 29 28
3  26 31 32
3  31 30 33
3  32 33 21
3  31 33 32
3  28 30 31
3  24 28 25
3  25 31 26
3  31 25 28
3  34 40 41
3  40 42 43
3  41 43 44
3  41 40 43
3  42 45 46
3  45 6 47
3  46 47 48
3  46 45 47
3  44 49 50
3  49 48 51
3  50 51 39
3  50 49 51
3  43 42 46
3  44 43 49
3  49 46 48
3  46 49 43
3  5 2 20
3  4 5 64
3  64 20 17
3  20 64 5
3  3 4 65
3  1 3 66
3  66 65 67
3  65 66 3
3  68 17 16
3  67 68 69
3  69 16 0
3  16 69 68
3  17 68 64
3  68 67 65
3  64 65 4
3  64 68 65
3  7 52 70
3  52 53 71
3  70 71 72
3  52 71 70
3  53 54 73
3  54 39 51
3  73 51 48
3  54 51 73
3  72 74 75
3  74 48 47
3  75 47 6
3  74 47 75
3  53 73 71
3  73 48 74
3  71 74 72
3  71 73 74
3  2 5 58
3  5 4 76
3  58 76 59
3  5 76 58
3  4 3 77
3  3 1 27
3  77 27 24
3  3 27 77
3  59 78 60
3  78 24 22
3  60 22 6
3  78 22 60
3  77 24 78
3  4 77 76
3  76 78 59
3  78 76 77
3  2 63 57
3  63 62 79
3  57 79 56
3  63 79 57
3  62 61 80
3  61 34 35
3  80 35 36
3  61 35 80
3  56 81 55
3  81 36 37
3  55 37 38
3  81 37 55
3  62 80 79
3  80 36 81
3  79 81 56
3  79 80 81
3  8 10 82
3  10 13 83
3  82 83 84
3  10 83 82
3  13 19 85
3  19 2 57
3  85 57 56
3  19 57 85
3  84 86 87
3  86 56 55
3  87 55 38
3  86 55 87
3  13 85 83
3  85 56 86
3  83 86 84
3  83 85 86
3  60 6 45
3  59 60 88
3  88 45 42
3  88 60 45
3  58 59 89
3  2 58 63
3  63 89 62
3  63 58 89
3  90 42 40
3  62 90 61
3  61 40 34
3  61 90 40
3  62 89 90
3  89 59 88
3  90 88 42
3  90 89 88
3  21 91 32
3  91 92 93
3  32 93 26
3  32 91 93
3  92 94 95
3  94 7 70
3  95 70 72
3  95 94 70
3  26 96 23
3  96 72 75
3  23 75 6
3  23 96 75
3  93 92 95
3  26 93 96
3  96 95 72
3  95 96 93
CELL_TYPES 160
5
5
5
5
5
5
5
5
5
5
5
5
5
5
5
5
5
5
5
5
5
5
5
5
5
5
5
5
5
5
5
5
5
5
5
5
5
5
5
5
5
5
5
5
5
5
5
5
5
5
5
5
5
5
5
5
5
5
5
5
5
5
5
5
5
5
5
5
5
5
5
5
5
5
5
5
5
5
5
5
5
5
5
5
5
5
5
5
5
5
5
5
5
5
5
5
5
5
5
5
5
5
5
5
5
5
5
5
5
5
5
5
5
5
5
5
5
5
5
5
5
5
5
5
5
5
5
5
5
5
5
5
5
5
5
5
5
5
5
5
5
5
5
5
5
5
5
5
5
5
5
5
5
5
5
5
5
5
5
5
POINT_DATA 97
VECTORS slip double
0.000000e+00 0.000000e+00 0.000000e+00
0.000000e+00 0.000000e+00 0.000000e+00
-4.709595e-02 -8.527326e-02 -6.776264e-18
-3.321118e+00 -3.876156e+00 -2.168404e-16
-2.874765e+00 -3.708355e+00 0.000000e+00
-1.325709e+00 -2.045214e+00 1.084202e-16
0.000000e+00 0.000000e+00 0.000000e+00
0.000000e+00 0.000000e+00 0.000000e+00
0.000000e+00 0.000000e+00 0.000000e+00
0.000000e+00 0.000000e+00 0.000000e+00
-2.655372e+00 -3.165332e+00 0.000000e+00
0.000000e+00 0.000000e+00 0.000000e+00
-2.961838e+00 -3.416508e+00 0.000000e+00
-2.356654e+00 -3.093687e+00 0.000000e+00
0.000000e+00 0.000000e+00 0.000000e+00
-3.315336e+00 -3.816056e+00 2.168404e-16
-3.672406e+00 -4.317597e+00 0.000000e+00
-2.887486e+00 -3.772440e+00 0.000000e+00
-2.535047e+00 -3.285734e+00 0.000000e+00
-1.060772e+00 -1.546632e+00 0.000000e+00
-1.257466e+00 -1.929633e+00 0.000000e+00
0.000000e+00 0.000000e+00 0.000000e+00
-7.424061e-02 -1.065490e-01 6.776264e-18
0.000000e+00 0.000000e+00 0.000000e+00
-1.704993e+00 -2.401222e+00 0.000000e+00
-1.429600e+00 -2.169591e+00 1.084202e-16
-1.210787e+00 -1.885764e+00 1.084202e-16
-3.217723e+00 -4.100661e+00 0.000000e+00
-2.979816e+00 -3.793611e+00 0.000000e+00
0.000000e+00 0.000000e+00 0.000000e+00
0.000000e+00 0.000000e+00 0.000000e+00
-2.776456e+00 -3.597707e+00 0.000000e+00
-2.077366e+00 -3.010547e+00 0.000000e+00
0.000000e+00 0.000000e+00 0.000000e+00
0.000000e+00 0.000000e+00 0.000000e+00
0.000000e+00 0.000000e+00 0.000000e+00
0.000000e+00 0.000000e+00 0.000000e+00
0.000000e+00 0.000000e+00 0.000000e+00
0.000000e+00 0.000000e+00 0.000000e+00
0.000000e+00 0.000000e+00 0.000000e+00
0.000000e+00 0.000000e+00 0.000000e+00
0.000000e+00 0.000000e+00 0.000000e+00
0.000000e+00 0.000000e+00 0.000000e+00
0.000000e+00 0.000000e+00 0.000000e+00
0.000000e+00 0.000000e+00 0.000000e+00
0.000000e+00 0.000000e+00 0.000000e+00
0.000000e+00 0.000000e+00 0.000000e+00
0.000000e+00 0.000000e+00 0.000000e+00
0.000000e+00 0.000000e+00 0.000000e+00
0.000000e+00 0.000000e+00 0.000000e+00
0.000000e+00 0.000000e+00 0.000000e+00
0.000000e+00 0.000000e+00 0.000000e+00
0.000000e+00 0.000000e+00 0.000000e+00
0.000000e+00 0.000000e+00 0.000000e+00
0.000000e+00 0.000000e+00 0.000000e+00
0.000000e+00 0.000000e+00 0.000000e+00
0.000000e+00 0.000000e+00 0.000000e+00
0.000000e+00 0.000000e+00 0.000000e+00
0.000000e+00 0.000000e+00 0.000000e+00
0.000000e+00 0.000000e+00 0.000000e+00
0.000000e+00 0.000000e+00 0.000000e+00
0.000000e+00 0.000000e+00 0.000000e+00
0.000000e+00 0.000000e+00 0.000000e+00
0.000000e+00 0.000000e+00 0.000000e+00
-2.914747e+00 -3.696037e+00 0.000000e+00
-3.456233e+00 -4.004440e+00 0.000000e+00
0.000000e+00 0.000000e+00 0.000000e+00
0.000000e+00 0.000000e+00 0.000000e+00
-3.537755e+00 -4.088295e+00 2.168404e-16
0.000000e+00 0.000000e+00 0.000000e+00
0.000000e+00 0.000000e+00 0.000000e+00
0.000000e+00 0.000000e+00 0.000000e+00
0.000000e+00 0.000000e+00 0.000000e+00
0.000000e+00 0.000000e+00 0.000000e+00
0.000000e+00 0.000000e+00 0.000000e+00
0.000000e+00 0.000000e+00 0.000000e+00
-8.717278e-01 -1.277316e+00 0.000000e+00
-2.350898e+00 -3.122969e+00 0.000000e+00
-3.791193e-01 -5.599595e-01 2.710505e-17
0.000000e+00 0.000000e+00 0.000000e+00
0.000000e+00 0.000000e+00 0.000000e+00
0.000000e+00 0.000000e+00 0.000000e+00
0.000000e+00 0.000000e+00 0.000000e+00
-1.418301e-01 -2.754827e-01 0.000000e+00
0.000000e+00 0.000000e+00 0.000000e+00
0.000000e+00 0.000000e+00 0.000000e+00
0.000000e+00 0.000000e+00 0.000000e+00
0.000000e+00 0.000000e+00 0.000000e+00
0.000000e+00 0.000000e+00 0.000000e+00
0.000000e+00 0.000000e+00 0.000000e+00
0.000000e+00 0.000000e+00 0.000000e+00
0.000000e+00 0.000000e+00 0.000000e+00
0.000000e+00 0.000000e+00 0.000000e+00
0.000000e+00 0.000000e+00 0.000000e+00
0.000000e+00 0.000000e+00 0.000000e+00
0.000000e+00 0.000000e+00 0.000000e+00
0.000000e+00 0.000000e+00 0.000000e+00
VECTORS traction double
0.000000e+00 0.000000e+00 0.000000e+00
0.000000e+00 0.000000e+00 0.000000e+00
-4.328439e+07 -6.633200e+07 -3.960263e+08
-2.092184e+07 -2.972432e+07 -1.817456e+08
-2.911051e+07 -4.174986e+07 -2.544834e+08
-3.749101e+07 -5.346119e+07 -3.264841e+08
-3.840132e+07 -5.665233e+07 -4.846082e+08
0.000000e+00 0.000000e+00 0.000000e+00
0.000000e+00 0.000000e+00 0.000000e+00
0.000000e+00 0.000000e+00 0.000000e+00
-2.267194e+07 -3.351811e+07 -2.023290e+08
0.000000e+00 0.000000e+00 0.000000e+00
-1.986806e+07 -2.887380e+07 -1.752453e+08
-3.090197e+07 -4.551755e+07 -2.750809e+08
0.000000e+00 0.000000e+00 0.000000e+00
-2.025130e+07 -2.876244e+07 -1.758830e+08
-1.883457e+07 -2.675852e+07 -1.636123e+08
-2.715738e+07 -3.859533e+07 -2.359620e+08
-2.882255e+07 -4.039474e+07 -2.481166e+08
-3.860167e+07 -5.779849e+07 -3.475182e+08
-3.567478e+07 -5.018762e+07 -3.078752e+08
0.000000e+00 0.000000e+00 0.000000e+00
-4.227153e+07 -6.508254e+07 -3.880277e+08
-4.211396e+07 -6.328716e+07 -4.114357e+08
-3.332223e+07 -4.770399e+07 -2.909485e+08
-3.412477e+07 -4.797821e+07 -2.943810e+08
-3.547211e+07 -5.209066e+07 -3.151074e+08
-2.302654e+07 -3.170886e+07 -1.959384e+08
-2.348393e+07 -3.254356e+07 -2.006600e+08
0.000000e+00 0.000000e+00 0.000000e+00
0.000000e+00 0.000000e+00 0.000000e+00
-2.289443e+07 -3.257507e+07 -1.990785e+08
-2.507701e+07 -3.591614e+07 -2.190220e+08
0.000000e+00 0.000000e+00 0.000000e+00
0.000000e+00 0.000000e+00 0.000000e+00
0.000000e+00 0.000000e+00 0.000000e+00
0.000000e+00 0.000000e+00 0.000000e+00
0.000000e+00 0.000000e+00 0.000000e+00
0.000000e+00 0.000000e+00 0.000000e+00
0.000000e+00 0.000000e+00 0.000000e+00
-3.739114e+07 -5.530392e+07 -6.986609e+08
0.000000e+00 0.000000e+00 0.000000e+00
-3.758953e+07 -5.547275e+07 -6.263453e+08
-3.741099e+07 -5.539758e+07 -7.049788e+08
0.000000e+00 0.000000e+00 0.000000e+00
-3.790395e+07 -5.574197e+07 -5.540491e+08
-3.752922e+07 -5.550370e+07 -6.327002e+08
-3.768193e+07 -5.554751e+07 -5.725254e+08
-3.752890e+07 -5.550393e+07 -6.447580e+08
-3.743616e+07 -5.544645e+07 -7.049683e+08
0.000000e+00 0.000000e+00 0.000000e+00
-3.739018e+07 -5.529157e+07 -7.170140e+08
0.000000e+00 0.000000e+00 0.000000e+00
0.000000e+00 0.000000e+00 0.000000e+00
0.000000e+00 0.000000e+00 0.000000e+00
-3.735129e+07 -5.523304e+07 -6.612462e+08
-3.768691e+07 -5.558498e+07 -5.648617e+08
-3.800632e+07 -5.728488e+07 -4.684867e+08
-4.078459e+07 -6.287778e+07 -4.159853e+08
-3.979951e+07 -6.018352e+07 -4.397064e+08
-3.902106e+07 -5.807115e+07 -4.640565e+08
-3.740972e+07 -5.533332e+07 -6.848442e+08
-3.771206e+07 -5.559789e+07 -5.885022e+08
-3.835968e+07 -5.640915e+07 -4.919864e+08
-2.817425e+07 -4.075519e+07 -2.477284e+08
-2.024507e+07 -2.866938e+07 -1.754847e+08
0.000000e+00 0.000000e+00 0.000000e+00
0.000000e+00 0.000000e+00 0.000000e+00
-2.035084e+07 -2.870533e+07 -1.759370e+08
0.000000e+00 0.000000e+00 0.000000e+00
-3.732254e+07 -5.519289e+07 -6.777805e+08
-3.736322e+07 -5.528445e+07 -7.050215e+08
-3.743528e+07 -5.529328e+07 -6.054021e+08
-3.736305e+07 -5.529342e+07 -7.049539e+08
-3.752084e+07 -5.533412e+07 -6.327037e+08
-3.781441e+07 -5.571720e+07 -5.331529e+08
-3.843139e+07 -5.705204e+07 -3.439443e+08
-3.099729e+07 -4.462956e+07 -2.716905e+08
-4.041684e+07 -6.142528e+07 -3.676475e+08
-3.760212e+07 -5.537450e+07 -5.844379e+08
-3.738698e+07 -5.528034e+07 -6.808525e+08
-3.736117e+07 -5.521722e+07 -6.808948e+08
0.000000e+00 0.000000e+00 0.000000e+00
-3.847626e+07 -5.701683e+07 -3.439237e+08
0.000000e+00 0.000000e+00 0.000000e+00
-3.896568e+07 -5.863325e+07 -4.160407e+08
-3.778184e+07 -5.584876e+07 -5.125018e+08
0.000000e+00 0.000000e+00 0.000000e+00
-3.798905e+07 -5.603174e+07 -5.362598e+08
-3.818902e+07 -5.606146e+07 -5.121058e+08
-3.764679e+07 -5.560612e+07 -6.085608e+08
0.000000e+00 0.000000e+00 0.000000e+00
0.000000e+00 0.000000e+00 0.000000e+00
-4.041367e+07 -5.994197e+07 -3.677605e+08
0.000000e+00 0.000000e+00 0.000000e+00
-3.752731e+07 -5.542989e+07 -5.362430e+08
-3.783311e+07 -5.713317e+07 -4.640682e+08
