# vtk DataFile Version 2.0
Simplicial Mesh Example
ASCII
DATASET UNSTRUCTURED_GRID
POINTS 926 double
3.000000e+05 -1.659466e+05 0.000000e+00
3.323841e+05 -1.500853e+05 0.000000e+00
1.000000e+05 -3.000000e+05 0.000000e+00
8.376766e+04 -3.323560e+05 0.000000e+00
3.680760e+05 -6.909438e+04 0.000000e+00
-3.000000e+05 -2.326501e+05 0.000000e+00
-3.000000e+05 -1.989752e+05 0.000000e+00
-3.324295e+05 -2.170264e+05 0.000000e+00
-2.515393e+05 -3.324613e+05 0.000000e+00
-2.666667e+05 -3.000000e+05 0.000000e+00
-1.666667e+05 -3.000000e+05 0.000000e+00
-1.507909e+05 -3.323848e+05 0.000000e+00
-1.038755e+05 3.680862e+05 0.000000e+00
-1.217391e+05 4.000000e+05 0.000000e+00
-8.379954e+04 3.323534e+05 0.000000e+00
3.000000e+05 -6.540655e+04 0.000000e+00
1.000000e+05 3.000000e+05 0.000000e+00
1.172617e+05 3.323725e+05 0.000000e+00
3.680819e+05 1.387484e+05 0.000000e+00
4.000000e+05 1.565217e+05 0.000000e+00
-3.461370e+04 -3.681008e+05 0.000000e+00
-1.739130e+04 -4.000000e+05 0.000000e+00
-1.676668e+04 -3.323444e+05 0.000000e+00
3.679951e+05 -2.423193e+05 0.000000e+00
4.000000e+05 -2.608696e+05 0.000000e+00
3.324577e+05 -2.511100e+05 0.000000e+00
-3.698054e+05 -3.472763e+05 0.000000e+00
-3.663396e+05 -3.129808e+05 0.000000e+00
-3.315797e+05 -3.410949e+05 0.000000e+00
1.731007e+05 3.680556e+05 0.000000e+00
1.913043e+05 4.000000e+05 0.000000e+00
4.000000e+05 2.956522e+05 0.000000e+00
-2.179099e+05 -3.324288e+05 0.000000e+00
-2.000000e+05 -3.000000e+05 0.000000e+00
-1.172626e+05 3.323723e+05 0.000000e+00
-1.000000e+05 3.000000e+05 0.000000e+00
3.000000e+05 -9.891990e+04 0.000000e+00
3.323674e+05 -1.164140e+05 0.000000e+00
-3.000000e+05 -3.162526e+04 0.000000e+00
-3.000000e+05 1.537267e+03 0.000000e+00
-3.324526e+05 -2.845988e+05 0.000000e+00
-3.280582e+05 -3.160567e+05 0.000000e+00
-2.333333e+05 -3.000000e+05 0.000000e+00
-1.731007e+05 -3.680556e+05 0.000000e+00
-2.077253e+05 -3.680332e+05 0.000000e+00
5.217391e+04 4.000000e+05 0.000000e+00
1.674987e+04 3.323474e+05 0.000000e+00
3.461320e+04 3.681000e+05 0.000000e+00
3.333333e+04 3.000000e+05 0.000000e+00
-3.680268e+05 2.424010e+05 0.000000e+00
-3.680500e+05 2.077851e+05 0.000000e+00
-1.731195e+05 3.680519e+05 0.000000e+00
-4.000000e+05 2.260870e+05 0.000000e+00
-2.883046e+05 -3.320639e+05 0.000000e+00
-3.323717e+05 -1.156481e+05 0.000000e+00
-3.323844e+05 -1.494568e+05 0.000000e+00
-3.323741e+05 -4.867882e+04 0.000000e+00
3.680861e+05 1.041109e+05 0.000000e+00
4.000000e+05 1.217391e+05 0.000000e+00
3.681214e+05 1.733599e+05 0.000000e+00
-4.000000e+05 2.608696e+05 0.000000e+00
1.731179e+05 -3.680539e+05 0.000000e+00
2.077389e+05 -3.680332e+05 0.000000e+00
3.324653e+05 -2.846969e+05 0.000000e+00
3.280142e+05 -3.160947e+05 0.000000e+00
2.260870e+05 -4.000000e+05 0.000000e+00
2.333333e+05 -3.000000e+05 0.000000e+00
2.515884e+05 -3.324527e+05 0.000000e+00
2.178294e+05 -3.324303e+05 0.000000e+00
1.666667e+05 -3.000000e+05 0.000000e+00
1.507941e+05 -3.323846e+05 0.000000e+00
1.843081e+05 -3.324053e+05 0.000000e+00
-2.077411e+05 3.680376e+05 0.000000e+00
-2.260870e+05 4.000000e+05 0.000000e+00
-3.323592e+05 1.803079e+04 0.000000e+00
-3.323564e+05 -1.534688e+04 0.000000e+00
-3.681082e+05 1.584064e+02 0.000000e+00
3.323394e+05 1.192487e+05 0.000000e+00
3.000000e+05 1.021602e+05 0.000000e+00
-3.323756e+05 1.180902e+05 0.000000e+00
-3.323866e+05 1.514636e+05 0.000000e+00
-4.000000e+05 -1.217391e+05 0.000000e+00
-3.680643e+05 -1.036683e+05 0.000000e+00
-3.680322e+05 -1.383008e+05 0.000000e+00
1.333333e+05 3.000000e+05 0.000000e+00
1.507909e+05 3.323848e+05 0.000000e+00
-3.324024e+05 -1.833258e+05 0.000000e+00
-1.384781e+05 -3.680720e+05 0.000000e+00
-1.038578e+05 -3.680873e+05 0.000000e+00
-1.217391e+05 -4.000000e+05 0.000000e+00
1.384965e+05 -3.680708e+05 0.000000e+00
1.565217e+05 -4.000000e+05 0.000000e+00
-4.000000e+05 1.565217e+05 0.000000e+00
-3.680901e+05 1.385746e+05 0.000000e+00
1.038746e+05 -3.680839e+05 0.000000e+00
1.217391e+05 -4.000000e+05 0.000000e+00
1.674277e+04 -3.323442e+05 0.000000e+00
3.463000e+04 -3.680990e+05 0.000000e+00
7.744455e+00 -3.681012e+05 0.000000e+00
-4.000000e+05 -1.565217e+05 0.000000e+00
-3.680143e+05 -1.729566e+05 0.000000e+00
1.739130e+04 4.000000e+05 0.000000e+00
3.325804e+05 1.861647e+05 0.000000e+00
-3.323820e+05 -8.213181e+04 0.000000e+00
-3.000000e+05 1.010248e+05 0.000000e+00
-3.323572e+05 8.476518e+04 0.000000e+00
-3.320733e+05 2.883554e+05 0.000000e+00
-6.923637e+04 -3.680930e+05 0.000000e+00
-5.217391e+04 -4.000000e+05 0.000000e+00
3.680896e+05 6.946960e+04 0.000000e+00
4.000000e+05 5.217391e+04 0.000000e+00
4.000000e+05 8.695652e+04 0.000000e+00
1.739130e+04 -4.000000e+05 0.000000e+00
2.000000e+05 -3.000000e+05 0.000000e+00
-2.000000e+05 3.000000e+05 0.000000e+00
-2.177787e+05 3.324359e+05 0.000000e+00
-1.843648e+05 3.324029e+05 0.000000e+00
-3.681034e+05 -3.444502e+04 0.000000e+00
3.680524e+05 -1.383766e+05 0.000000e+00
4.000000e+05 -1.565217e+05 0.000000e+00
3.680364e+05 -1.730173e+05 0.000000e+00
6.925236e+04 -3.680933e+05 0.000000e+00
5.217391e+04 -4.000000e+05 0.000000e+00
3.323341e+05 8.558297e+04 0.000000e+00
3.000000e+05 6.864685e+04 0.000000e+00
2.666667e+05 3.000000e+05 0.000000e+00
2.515361e+05 3.324615e+05 0.000000e+00
1.565217e+05 4.000000e+05 0.000000e+00
1.384781e+05 3.680720e+05 0.000000e+00
3.000000e+05 -2.329733e+05 0.000000e+00
3.324280e+05 -2.174304e+05 0.000000e+00
3.000000e+05 2.018902e+05 0.000000e+00
3.326080e+05 2.191835e+05 0.000000e+00
-4.000000e+05 -2.260870e+05 0.000000e+00
-3.680029e+05 -2.076147e+05 0.000000e+00
-3.679763e+05 -2.422690e+05 0.000000e+00
3.680656e+05 -1.037356e+05 0.000000e+00
4.000000e+05 -1.217391e+05 0.000000e+00
6.666667e+04 -3.000000e+05 0.000000e+00
5.025498e+04 -3.323480e+05 0.000000e+00
3.333333e+04 -3.000000e+05 0.000000e+00
2.423612e+05 -3.680038e+05 0.000000e+00
2.608696e+05 -4.000000e+05 0.000000e+00
-3.678653e+05 2.770869e+05 0.000000e+00
2.770113e+05 -3.678523e+05 0.000000e+00
-4.000000e+05 -1.739130e+04 0.000000e+00
4.000000e+05 -8.695652e+04 0.000000e+00
-3.000000e+05 1.341874e+05 0.000000e+00
-6.666667e+04 3.000000e+05 0.000000e+00
-5.025707e+04 3.323515e+05 0.000000e+00
-3.000000e+05 2.005124e+05 0.000000e+00
-3.000000e+05 2.336749e+05 0.000000e+00
-3.324312e+05 2.182807e+05 0.000000e+00
-3.333333e+04 3.000000e+05 0.000000e+00
3.663474e+05 -3.132902e+05 0.000000e+00
4.000000e+05 -3.304348e+05 0.000000e+00
3.694761e+05 -3.502454e+05 0.000000e+00
4.000000e+05 -3.652174e+05 0.000000e+00
3.000000e+05 -1.324332e+05 0.000000e+00
-6.666667e+04 -3.000000e+05 0.000000e+00
-8.379869e+04 -3.323535e+05 0.000000e+00
-3.333333e+04 -3.000000e+05 0.000000e+00
-5.025687e+04 -3.323516e+05 0.000000e+00
3.323395e+05 -1.540013e+04 0.000000e+00
3.323331e+05 1.824617e+04 0.000000e+00
3.000000e+05 1.620150e+03 0.000000e+00
-4.000000e+05 5.217391e+04 0.000000e+00
-3.681122e+05 3.476335e+04 0.000000e+00
3.681472e+05 2.079604e+05 0.000000e+00
3.681188e+05 2.425277e+05 0.000000e+00
4.000000e+05 2.260870e+05 0.000000e+00
3.680460e+05 2.771856e+05 0.000000e+00
-1.913043e+05 4.000000e+05 0.000000e+00
3.324042e+05 -1.837572e+05 0.000000e+00
3.000000e+05 3.513350e+04 0.000000e+00
-6.925390e+04 3.680922e+05 0.000000e+00
-8.695652e+04 4.000000e+05 0.000000e+00
-1.384959e+05 3.680704e+05 0.000000e+00
3.326450e+05 2.521588e+05 0.000000e+00
3.000000e+05 2.345935e+05 0.000000e+00
3.680898e+05 1.877167e+02 0.000000e+00
3.680838e+05 -3.445303e+04 0.000000e+00
4.000000e+05 -1.739130e+04 0.000000e+00
2.666667e+05 -3.000000e+05 0.000000e+00
2.882915e+05 -3.320621e+05 0.000000e+00
-4.000000e+05 1.217391e+05 0.000000e+00
-3.681035e+05 1.039715e+05 0.000000e+00
4.000000e+05 1.913043e+05 0.000000e+00
1.666667e+05 3.000000e+05 0.000000e+00
1.843130e+05 3.324055e+05 0.000000e+00
-3.686836e+05 3.117864e+05 0.000000e+00
-4.000000e+05 2.956522e+05 0.000000e+00
-1.913043e+05 -4.000000e+05 0.000000e+00
-2.423632e+05 -3.680118e+05 0.000000e+00
-2.260870e+05 -4.000000e+05 0.000000e+00
-3.000000e+05 -6.478778e+04 0.000000e+00
1.217391e+05 4.000000e+05 0.000000e+00
1.038578e+05 3.680873e+05 0.000000e+00
-1.333333e+05 3.000000e+05 0.000000e+00
-1.507965e+05 3.323846e+05 0.000000e+00
3.680174e+05 -2.076594e+05 0.000000e+00
4.000000e+05 -2.260870e+05 0.000000e+00
-2.608696e+05 -4.000000e+05 0.000000e+00
-2.771049e+05 -3.678525e+05 0.000000e+00
2.179096e+05 3.324288e+05 0.000000e+00
2.000000e+05 3.000000e+05 0.000000e+00
-1.333333e+05 -3.000000e+05 0.000000e+00
-1.000000e+05 -3.000000e+05 0.000000e+00
-1.172617e+05 -3.323725e+05 0.000000e+00
-3.324670e+05 2.517626e+05 0.000000e+00
1.172807e+05 -3.323682e+05 0.000000e+00
4.000000e+05 -5.217391e+04 0.000000e+00
-3.324074e+05 1.848350e+05 0.000000e+00
-2.513373e+05 3.324609e+05 0.000000e+00
-2.333333e+05 3.000000e+05 0.000000e+00
8.695652e+04 -4.000000e+05 0.000000e+00
-4.000000e+05 1.913043e+05 0.000000e+00
-3.680735e+05 1.731789e+05 0.000000e+00
-3.679440e+05 -2.770299e+05 0.000000e+00
-4.000000e+05 -2.608696e+05 0.000000e+00
6.923623e+04 3.680926e+05 0.000000e+00
8.695652e+04 4.000000e+05 0.000000e+00
2.608696e+05 4.000000e+05 0.000000e+00
2.771027e+05 3.678569e+05 0.000000e+00
2.423629e+05 3.680119e+05 0.000000e+00
2.956522e+05 4.000000e+05 0.000000e+00
3.121717e+05 3.686941e+05 0.000000e+00
-3.709768e+05 3.470258e+05 0.000000e+00
-3.410676e+05 3.315303e+05 0.000000e+00
3.679565e+05 -2.771494e+05 0.000000e+00
4.000000e+05 -2.956522e+05 0.000000e+00
2.260870e+05 4.000000e+05 0.000000e+00
2.077253e+05 3.680332e+05 0.000000e+00
-3.000000e+05 -1.653002e+05 0.000000e+00
-3.681074e+05 6.936799e+04 0.000000e+00
-4.000000e+05 8.695652e+04 0.000000e+00
-2.847890e+05 3.324722e+05 0.000000e+00
-2.666667e+05 3.000000e+05 0.000000e+00
6.666667e+04 3.000000e+05 0.000000e+00
8.379885e+04 3.323535e+05 0.000000e+00
3.324998e+05 2.850782e+05 0.000000e+00
3.000000e+05 2.672967e+05 0.000000e+00
-5.217391e+04 4.000000e+05 0.000000e+00
-3.463078e+04 3.680998e+05 0.000000e+00
-4.000000e+05 1.739130e+04 0.000000e+00
1.333333e+05 -3.000000e+05 0.000000e+00
-1.565217e+05 -4.000000e+05 0.000000e+00
[...]
POINT_DATA 926
VECTORS displacement double
-3.567393e-04 7.435298e-04 -9.737610e-05
-3.127763e-04 6.952123e-04 -1.075210e-04
1.905269e-03 -4.682374e-04 6.746661e-05
2.223438e-03 -5.200997e-04 1.831748e-04
-2.868454e-04 3.465753e-04 -1.578247e-04
-1.103940e-03 -1.168459e-03 -1.331338e-03
-8.571745e-04 -1.380800e-03 -1.638058e-03
-6.064873e-04 9.722379e-05 -1.054112e-03
-1.338907e-03 -1.326789e-03 -2.934566e-04
-1.407638e-03 -1.617946e-03 -6.790326e-04
-6.556225e-04 -4.787986e-03 -1.729096e-03
-2.598548e-04 -3.093482e-03 -8.061940e-04
1.127771e-03 1.043643e-03 8.431202e-04
9.228756e-04 0.000000e+00 8.850348e-04
1.324887e-03 2.140598e-03 7.244502e-04
-9.390803e-04 3.499040e-04 -1.776681e-04
1.917480e-03 6.311027e-04 4.017740e-04
1.969282e-03 3.302613e-04 4.163996e-04
-8.615302e-05 -6.447963e-04 -6.132779e-05
0.000000e+00 -6.671373e-04 -4.264599e-05
1.862993e-03 -1.090558e-03 6.379559e-05
2.060829e-03 0.000000e+00 2.213030e-04
2.068039e-03 -2.066534e-03 -2.379097e-04
6.198604e-05 6.951079e-04 -2.925893e-06
0.000000e+00 6.498254e-04 1.517729e-05
1.733898e-04 6.789550e-04 1.118045e-05
-4.120671e-04 2.143824e-04 2.201994e-04
-4.617560e-04 3.665722e-04 1.104252e-05
-8.890563e-04 -3.899943e-06 1.221675e-04
1.725437e-03 1.622293e-05 3.281046e-04
1.621101e-03 0.000000e+00 2.980519e-04
0.000000e+00 -4.360714e-04 9.037643e-05
-1.194843e-03 -1.994362e-03 -4.898798e-04
-1.166228e-03 -3.867892e-03 -1.457115e-03
8.949011e-04 2.269435e-03 7.591080e-04
1.031562e-03 3.352524e-03 5.300645e-04
-7.919823e-04 5.291270e-04 -1.591354e-04
-4.625881e-04 5.883916e-04 -1.402579e-04
3.456277e-03 2.069572e-03 1.189501e-03
2.467815e-03 2.820777e-03 5.642109e-04
-8.525354e-04 5.433786e-07 -3.576618e-04
-9.109307e-04 -6.639027e-05 -7.234466e-05
-1.416993e-03 -2.725227e-03 -1.071590e-03
-5.843108e-04 -1.261391e-03 -1.584788e-04
-1.034523e-03 -1.001112e-03 -7.885947e-05
2.236669e-03 0.000000e+00 5.961672e-04
2.117250e-03 1.222604e-03 6.023579e-04
2.207105e-03 5.025201e-04 6.225033e-04
2.066611e-03 1.537415e-03 4.921258e-04
-3.608251e-04 1.789251e-03 5.034855e-04
-4.128131e-04 1.889714e-03 2.744722e-04
2.771081e-04 1.044830e-03 8.939168e-04
0.000000e+00 1.722727e-03 4.195695e-04
-1.250141e-03 -6.528097e-04 -1.100021e-04
1.067886e-03 6.801138e-04 -6.532424e-04
3.068354e-04 3.899795e-04 -1.040371e-03
2.294564e-03 1.336565e-03 5.991299e-05
-1.591338e-04 -5.659000e-04 -9.880646e-05
0.000000e+00 -6.125999e-04 -8.117497e-05
-1.487163e-05 -6.720887e-04 -2.101823e-05
0.000000e+00 1.583137e-03 6.113775e-04
1.797072e-03 6.751346e-05 2.637092e-04
1.508612e-03 1.231096e-04 2.211790e-04
3.052088e-04 5.722476e-04 4.654270e-05
4.275211e-04 4.373556e-04 7.606464e-05
1.389392e-03 0.000000e+00 2.061560e-04
9.571717e-04 4.446715e-04 1.182339e-04
1.017116e-03 3.285711e-04 1.435338e-04
1.279822e-03 2.790200e-04 1.762062e-04
1.435563e-03 1.930695e-04 1.440850e-04
1.806018e-03 3.526520e-05 2.212320e-04
1.539381e-03 1.885465e-04 2.028532e-04
-6.623223e-05 9.582596e-04 9.064249e-04
-1.769472e-04 0.000000e+00 9.364924e-04
1.269571e-03 1.791240e-03 -3.243873e-04
2.074017e-03 1.547397e-03 7.003394e-06
8.067234e-04 1.140932e-03 -5.238396e-04
-2.741272e-04 -6.088579e-04 -8.213753e-05
-5.145264e-04 -5.673593e-04 -9.867588e-05
-7.241866e-04 2.520758e-03 -6.366011e-04
-8.857066e-04 2.573461e-03 -3.638443e-04
0.000000e+00 1.501976e-03 -8.798716e-04
7.287529e-04 1.354714e-03 -7.352177e-04
3.547235e-04 1.299379e-03 -9.213999e-04
1.740376e-03 3.059324e-04 3.437230e-04
1.779742e-03 1.303071e-04 3.504619e-04
-2.625733e-04 1.995588e-04 -1.176939e-03
2.320675e-05 -1.412373e-03 -1.903031e-04
6.985836e-04 -1.419387e-03 -1.426200e-04
3.482905e-04 0.000000e+00 -5.619136e-06
2.060647e-03 -1.925911e-05 2.971728e-04
1.971903e-03 0.000000e+00 2.954402e-04
0.000000e+00 1.607273e-03 -9.527175e-05
-3.826039e-04 1.720793e-03 -2.849153e-04
2.273532e-03 -1.473547e-04 3.169982e-04
2.215307e-03 0.000000e+00 3.318462e-04
2.274348e-03 -1.507831e-03 -5.157185e-05
2.391573e-03 -5.726052e-04 2.640858e-04
2.214705e-03 -8.234265e-04 1.759734e-04
0.000000e+00 1.447195e-03 -9.365916e-04
2.557094e-05 1.170842e-03 -9.794966e-04
2.177538e-03 0.000000e+00 6.731390e-04
2.988357e-05 -6.614224e-04 -4.966301e-06
1.898013e-03 1.022661e-03 -2.162117e-04
-1.040675e-03 4.132446e-03 -1.152945e-03
-3.155847e-04 2.373149e-03 -7.505080e-04
-5.398473e-04 1.731188e-03 7.047260e-04
1.340035e-03 -1.296412e-03 -5.721715e-05
1.607994e-03 0.000000e+00 1.280644e-04
-2.232237e-04 -4.373566e-04 -1.283328e-04
0.000000e+00 -3.561687e-04 -1.399046e-04
0.000000e+00 -5.071973e-04 -1.140491e-04
2.336659e-03 0.000000e+00 2.955597e-04
1.190388e-03 3.513397e-04 1.361137e-04
-2.851182e-04 3.147647e-03 6.262770e-04
-2.614632e-04 1.974644e-03 8.198991e-04
4.827649e-05 2.179297e-03 8.045090e-04
1.045432e-03 1.218735e-03 -4.646488e-04
-1.715736e-04 6.482941e-04 -1.102267e-04
0.000000e+00 6.906666e-04 -9.028986e-05
-9.017639e-05 7.227299e-04 -7.898094e-05
2.398807e-03 -3.387820e-04 3.041612e-04
2.439024e-03 0.000000e+00 3.376299e-04
-4.231740e-04 -5.093296e-04 -1.175325e-04
-7.253687e-04 -4.469072e-04 -1.323450e-04
8.438850e-04 -3.216986e-04 1.541534e-04
1.060363e-03 -1.962622e-04 1.930798e-04
1.861022e-03 0.000000e+00 3.638095e-04
1.945653e-03 1.033540e-04 3.962985e-04
1.459220e-04 7.217582e-04 -5.662636e-06
1.390655e-05 7.396915e-04 -3.099034e-05
1.591529e-04 -6.227456e-04 2.464604e-05
1.662604e-04 -6.220238e-04 3.248711e-05
0.000000e+00 1.076194e-03 -6.492701e-04
-2.100845e-04 9.843256e-04 -8.473110e-04
-3.420971e-04 7.794637e-04 -5.847408e-04
-2.405309e-04 5.203937e-04 -1.381968e-04
0.000000e+00 5.912095e-04 -1.232160e-04
2.081943e-03 -1.057530e-03 -6.457228e-05
2.319895e-03 -9.620395e-04 9.757012e-05
2.185796e-03 -1.823031e-03 -2.891503e-04
1.215514e-03 1.533534e-04 1.791084e-04
1.091842e-03 0.000000e+00 1.646483e-04
-2.998950e-04 1.558317e-03 6.799257e-04
9.286918e-04 1.698753e-04 1.422026e-04
0.000000e+00 1.086081e-03 -6.054172e-04
0.000000e+00 4.377655e-04 -1.472542e-04
-1.301939e-03 3.956622e-03 -8.875699e-04
1.456017e-03 3.045918e-03 5.344564e-04
1.693888e-03 1.901961e-03 6.890696e-04
-1.189972e-03 3.330307e-03 -6.830567e-05
-9.950748e-04 2.935242e-03 2.884189e-04
-7.999712e-04 2.377300e-03 2.604304e-04
1.786061e-03 2.599573e-03 5.306138e-04
1.925284e-04 4.547188e-04 6.065259e-05
0.000000e+00 3.736385e-04 6.918654e-05
2.115243e-04 2.722596e-04 8.169367e-05
0.000000e+00 1.929119e-04 8.268687e-05
-5.879313e-04 6.640992e-04 -1.318950e-04
1.463715e-03 -4.636541e-03 -1.381763e-03
1.099098e-03 -3.058197e-03 -6.692531e-04
1.923677e-03 -3.842327e-03 -1.049150e-03
1.657849e-03 -2.664124e-03 -4.625913e-04
-6.637118e-04 2.902331e-05 -1.758403e-04
-6.289776e-04 -1.765770e-04 -1.659897e-04
-9.895783e-04 -7.819111e-05 -1.783063e-04
0.000000e+00 1.042961e-03 -6.412296e-04
4.132282e-04 1.175843e-03 -6.231394e-04
5.600276e-05 -6.503909e-04 1.591236e-05
1.204574e-04 -5.883307e-04 4.873271e-05
0.000000e+00 -6.266090e-04 3.402036e-05
1.597999e-04 -4.941897e-04 8.024193e-05
1.140982e-04 0.000000e+00 9.292759e-04
-1.484878e-04 7.482616e-04 -6.994335e-05
-8.918754e-04 -2.792377e-04 -1.616042e-04
1.534037e-03 9.637092e-04 8.026093e-04
1.346570e-03 0.000000e+00 8.453385e-04
6.928216e-04 1.071491e-03 8.737245e-04
2.829376e-04 -5.498786e-04 6.824766e-05
3.440880e-04 -5.608080e-04 6.153953e-05
-3.044319e-04 -6.715354e-05 -1.646216e-04
-3.082295e-04 1.441225e-04 -1.664997e-04
0.000000e+00 3.931474e-05 -1.658954e-04
7.371114e-04 4.894854e-04 9.533691e-05
7.431347e-04 3.549082e-04 1.129326e-04
0.000000e+00 1.411479e-03 -3.552523e-04
-2.291394e-04 1.523331e-03 -5.214633e-04
0.000000e+00 -6.701709e-04 -2.922962e-06
1.529791e-03 5.807419e-05 2.872255e-04
1.555312e-03 -1.828466e-05 2.884544e-04
-2.366749e-04 1.202523e-03 7.976827e-04
0.000000e+00 1.313725e-03 7.499680e-04
-8.253872e-04 0.000000e+00 2.224662e-05
-1.262703e-03 -6.947148e-04 2.488052e-05
-1.165706e-03 0.000000e+00 9.124963e-05
3.169171e-03 8.894193e-04 1.137048e-03
2.058568e-03 0.000000e+00 4.365437e-04
2.114434e-03 2.134982e-04 4.711311e-04
5.562256e-04 3.484694e-03 5.588346e-04
4.498284e-04 2.286481e-03 7.846201e-04
-2.918300e-05 7.401227e-04 -3.923859e-05
0.000000e+00 7.214713e-04 -1.881446e-05
-1.278381e-03 0.000000e+00 1.756379e-04
-1.267870e-03 -3.795429e-04 1.383239e-04
1.309859e-03 -1.225408e-04 2.351503e-04
1.302051e-03 -1.193840e-04 2.350428e-04
4.762321e-05 -5.279981e-03 -1.843208e-03
8.080009e-04 -5.219089e-03 -1.700123e-03
4.167551e-04 -3.230475e-03 -7.613731e-04
-6.774132e-04 2.122123e-03 5.071904e-04
2.042071e-03 -1.919124e-04 2.192990e-04
0.000000e+00 2.478392e-04 -1.618556e-04
-8.884865e-04 2.526617e-03 -4.132634e-05
-4.550078e-04 1.713491e-03 8.356016e-04
-5.442444e-04 2.765774e-03 6.664136e-04
2.384140e-03 0.000000e+00 3.471457e-04
0.000000e+00 1.724894e-03 1.784974e-04
-4.305131e-04 1.857869e-03 -3.521057e-07
-4.092916e-04 5.746181e-04 -2.689019e-04
0.000000e+00 8.326574e-04 -3.630426e-04
2.208414e-03 3.491789e-04 5.468505e-04
2.191409e-03 0.000000e+00 5.160764e-04
1.085011e-03 0.000000e+00 1.993933e-04
9.396400e-04 -1.115871e-04 1.806727e-04
1.209810e-03 -8.333677e-05 2.185529e-04
8.095619e-04 0.000000e+00 1.643202e-04
6.688900e-04 -1.236974e-04 1.503289e-04
-1.846831e-04 7.594199e-04 8.720788e-04
-3.695082e-04 1.086888e-03 8.445914e-04
1.275304e-04 5.996571e-04 3.174149e-05
0.000000e+00 5.305198e-04 4.542093e-05
1.358082e-03 0.000000e+00 2.428609e-04
1.475065e-03 -4.139274e-05 2.660463e-04
-3.964786e-04 -1.526846e-03 -1.524097e-03
2.501538e-05 1.334607e-03 -6.526689e-04
0.000000e+00 1.201797e-03 -5.556974e-04
-5.189337e-04 1.453665e-03 8.477217e-04
-6.581653e-04 2.337751e-03 7.082522e-04
2.034968e-03 1.049475e-03 4.543536e-04
2.104376e-03 5.889340e-04 4.817757e-04
3.744981e-04 -4.485154e-04 9.640614e-05
4.998519e-04 -4.744917e-04 9.835783e-05
1.720149e-03 0.000000e+00 8.015224e-04
1.868177e-03 8.240935e-04 7.549657e-04
0.000000e+00 9.943406e-04 -6.289837e-04
1.680559e-03 -7.552421e-05 1.273915e-04
-2.992763e-04 0.000000e+00 -1.748949e-05
0.000000e+00 -1.687605e-04 -1.586735e-04
-1.007220e-03 1.387317e-04 -1.840176e-04
2.095453e-03 6.598950e-04 6.942242e-04
2.005852e-03 0.000000e+00 7.448104e-04
5.374733e-04 5.004141e-04 7.690973e-05
2.161630e-03 8.933418e-04 5.462984e-04
3.750960e-04 -1.272436e-04 1.303399e-04
4.889539e-04 -2.420676e-04 1.305392e-04
-1.322131e-03 3.674360e-03 -4.926599e-04
0.000000e+00 0.000000e+00 9.083731e-04
-1.881335e-04 0.000000e+00 9.089445e-04
0.000000e+00 4.906645e-04 8.891027e-04
-1.169833e-03 0.000000e+00 2.560120e-04
-1.066583e-03 -1.248109e-04 2.212070e-04
7.890433e-04 -2.444259e-04 1.550814e-04
2.153658e-03 -2.764800e-03 -5.992119e-04
9.139596e-04 3.590750e-03 -3.827508e-04
3.266481e-04 2.110806e-03 -6.628380e-04
-6.660559e-04 6.796883e-05 2.821827e-04
-8.887261e-04 0.000000e+00 3.072246e-04
-6.471803e-04 2.385308e-04 -1.752257e-04
-5.777973e-04 4.307670e-04 -1.624902e-04
-2.698711e-04 4.667766e-04 9.035932e-04
-5.422520e-04 -3.616941e-04 -1.455500e-04
0.000000e+00 0.000000e+00 3.530023e-04
-4.752077e-04 0.000000e+00 3.372449e-04
9.885856e-04 1.313845e-03 -5.555973e-04
2.617551e-04 0.000000e+00 9.525474e-05
0.000000e+00 0.000000e+00 8.777345e-05
-1.169676e-03 -6.972520e-04 -4.156345e-04
4.759117e-04 -3.341608e-04 1.197610e-04
-3.012977e-04 8.341419e-04 9.142944e-04
-3.450035e-04 0.000000e+00 9.243255e-04
-4.211472e-04 7.332191e-04 9.117239e-04
-6.185455e-04 1.912224e-03 7.403098e-04
-4.765541e-04 1.282022e-03 8.392621e-04
-4.060839e-04 6.304746e-04 9.021523e-04
-3.358185e-04 0.000000e+00 9.157174e-04
4.619501e-04 3.180860e-04 9.071129e-05
6.539767e-04 1.704627e-04 1.141034e-04
-2.741440e-04 -2.669802e-04 -1.516713e-04
3.887892e-04 1.611819e-04 9.702944e-05
1.961598e-03 1.570588e-03 6.462137e-04
-1.194091e-04 -6.583298e-04 -4.301219e-05
-4.121098e-04 4.059728e-03 -1.007715e-03
2.179369e-04 -3.673691e-04 1.044698e-04
0.000000e+00 0.000000e+00 1.249335e-04
0.000000e+00 -1.533800e-04 1.203510e-04
2.659982e-04 0.000000e+00 1.299844e-04
2.194555e-04 -2.282477e-04 1.203400e-04
1.016430e-03 0.000000e+00 4.814945e-05
0.000000e+00 7.319995e-04 -5.257805e-05
9.357122e-05 3.408801e-03 5.879366e-04
-7.764570e-04 5.381631e-05 -7.251229e-04
-8.221502e-04 -2.622816e-03 -6.606550e-04
4.947115e-04 0.000000e+00 9.138614e-04
5.377845e-04 0.000000e+00 1.429350e-04
3.620269e-04 6.340390e-04 3.779211e-05
1.986502e-03 2.072677e-03 5.143659e-04
1.688678e-03 0.000000e+00 2.514174e-04
-9.610375e-05 7.619704e-04 -5.135727e-05
0.000000e+00 1.429589e-03 -7.573270e-04
1.070223e-03 -2.440257e-04 1.903896e-04
-3.959773e-04 0.000000e+00 9.257255e-04
-1.174829e-03 -8.670799e-04 -8.476550e-04
5.287921e-04 0.000000e+00 1.104092e-04
0.000000e+00 -3.016563e-04 1.095852e-04
0.000000e+00 -5.432375e-04 6.715017e-05
6.162701e-04 -3.658338e-04 1.257168e-04
0.000000e+00 1.294052e-03 -8.589744e-04
8.035965e-04 0.000000e+00 1.303634e-04
0.000000e+00 1.739592e-04 2.930577e-04
0.000000e+00 1.269866e-03 -6.470035e-04
0.000000e+00 3.706755e-04 1.494857e-04
-8.114159e-04 2.457194e-03 5.515023e-04
0.000000e+00 5.934546e-04 -7.926758e-05
-2.848658e-04 -6.325330e-04 -5.952894e-05
0.000000e+00 9.369547e-04 8.387277e-04
2.018158e-03 5.090702e-04 1.787472e-05
2.561606e-03 2.627718e-04 7.620067e-04
1.503304e-03 2.144227e-04 -2.629122e-04
1.198679e-03 -7.760600e-04 -3.188802e-04
6.762251e-04 -1.082023e-03 -7.735678e-04
-1.694364e-04 -6.447398e-04 -3.941928e-05
-8.519880e-06 -6.561617e-04 -1.192266e-05
-9.931406e-05 -6.593603e-04 -3.194531e-05
5.643315e-05 -6.383445e-04 4.177651e-06
1.889844e-03 -3.336006e-04 2.548664e-04
1.994424e-03 1.434980e-04 1.321662e-04
2.224437e-03 -5.676483e-05 5.213812e-04
1.706628e-03 -4.985020e-05 -2.745571e-05
1.532847e-03 -5.825541e-04 -4.465407e-05
-1.113377e-04 -6.474071e-04 -2.864817e-05
-5.485457e-05 -6.481548e-04 -1.805030e-05
-3.010839e-05 -6.528112e-04 -1.506473e-05
-7.935668e-05 -6.547017e-04 -2.499504e-05
1.637110e-06 -6.441571e-04 -6.915241e-06
8.124386e-04 -3.653716e-04 1.426562e-04
1.009776e-03 -2.544357e-04 1.800011e-04
7.803296e-05 5.771636e-03 -1.501622e-03
7.439708e-04 7.596181e-03 -2.009313e-03
2.054701e-04 3.470644e-03 -5.139696e-04
1.069765e-03 4.569579e-03 -7.047585e-04
9.726399e-04 2.924911e-03 -2.282891e-04
-3.666745e-04 5.925557e-03 -2.672115e-04
-9.474183e-04 7.181090e-03 -9.264750e-04
-3.009450e-03 1.991423e-02 -6.967968e-03
-2.622280e-03 2.597841e-02 -9.573897e-03
-2.104363e-03 1.394557e-02 -4.497318e-03
-1.761921e-03 1.822362e-02 -6.408941e-03
-1.526725e-03 4.717557e-03 -5.601197e-04
-6.802774e-03 1.404907e-02 -3.319941e-03
-1.954246e-03 1.264010e-02 -4.133394e-03
2.120512e-05 -5.501413e-04 2.434488e-05
1.140474e-04 -5.995766e-04 2.062748e-05
1.439592e-04 4.673344e-03 2.309796e-04
-3.227487e-04 4.407577e-03 3.019926e-04
2.796984e-04 1.211727e-02 -3.698749e-03
-5.286762e-04 1.484195e-02 -4.845038e-03
3.346117e-04 9.818297e-03 -2.349753e-03
-4.498882e-04 1.051443e-02 -2.498926e-03
1.440852e-03 1.792552e-04 2.783207e-04
1.645728e-03 5.384533e-04 3.284802e-04
1.814941e-03 1.013605e-03 3.672606e-04
6.986922e-04 6.968082e-05 1.539885e-04
1.255750e-03 3.430583e-04 2.378225e-04
-2.577028e-03 1.288849e-02 -4.126978e-03
-2.030908e-03 9.931140e-03 -2.704790e-03
1.563410e-03 3.767190e-03 2.816549e-04
1.819803e-03 3.045186e-03 3.401817e-04
1.076273e-02 2.113379e-02 1.620481e-02
-1.030363e-03 8.538810e-02 4.200485e-03
-1.858896e-03 3.257544e-02 9.720778e-04
4.053683e-03 1.083334e-02 4.914114e-03
1.165467e-03 4.337228e-03 2.256253e-04
-1.161382e-03 3.699532e-03 -5.542953e-04
-1.609196e-03 6.941266e-03 -1.776139e-03
-9.636901e-04 3.258492e-03 3.847961e-04
-6.703686e-04 3.950170e-03 3.772124e-04
3.683496e-04 -5.444041e-04 6.183125e-05
1.932254e-03 2.310660e-03 3.664157e-04
1.917004e-03 1.602948e-03 3.878010e-04
1.016764e-03 5.545188e-04 1.935950e-04
1.171677e-03 1.196453e-03 1.576080e-04
-4.903594e-04 2.904274e-02 -1.078063e-02
-1.330351e-03 2.315158e-02 -8.796447e-03
-1.181289e-04 1.753555e-02 -6.335959e-03
9.642052e-05 2.808797e-06 9.771049e-05
-3.640036e-03 9.896958e-02 -3.160934e-02
4.364362e-03 4.129804e-03 3.028778e-03
2.925730e-04 7.809915e-03 -1.163141e-03
-1.101543e-04 -4.587453e-04 3.544810e-05
2.380458e-04 -2.527859e-04 9.174267e-05
3.294761e-04 -4.072387e-04 8.130081e-05
5.827145e-04 4.542004e-04 1.394446e-04
-3.164677e-04 -3.017843e-04 4.228820e-05
5.843098e-04 -4.666200e-04 1.029018e-04
-1.446094e-03 9.429662e-04 9.423447e-05
-3.571160e-04 1.037533e-03 2.243627e-05
-8.146288e-04 3.300071e-03 4.835232e-04
-3.318750e-03 1.762895e-02 -5.501685e-03
-4.478151e-03 2.597228e-02 -5.338482e-03
-7.087882e-03 6.013415e-02 -1.253090e-02
-4.582996e-03 3.717375e-02 -1.152122e-02
1.720438e-03 5.972450e-03 5.906663e-04
-6.307660e-04 1.266203e-02 -7.840062e-04
-1.270160e-03 1.322228e-02 -4.006533e-03
1.585012e-03 4.258675e-03 -2.430914e-05
1.729725e-03 3.267055e-03 1.176441e-04
1.065440e-03 6.278745e-06 2.024792e-04
-3.024502e-03 6.854550e-02 -2.003899e-02
8.543810e-03 5.382489e-03 9.603343e-03
1.450674e-03 4.543468e-03 -3.854684e-04
1.287436e-03 5.911660e-03 -7.108354e-04
-4.064116e-04 6.837081e-03 -1.121841e-03
1.225028e-03 -7.466210e-05 2.255604e-04
8.868251e-04 -2.316158e-04 1.635500e-04
-2.206949e-03 3.885414e-02 -1.379578e-02
-1.262450e-03 4.016591e-03 -3.689242e-05
7.061663e-05 1.728972e-02 -6.309054e-03
-7.147927e-04 2.038272e-03 -1.361086e-04
4.474230e-04 1.185887e-02 -3.951818e-03
6.586980e-04 4.617664e-03 2.190163e-04
-1.308728e-03 9.880930e-03 -2.310049e-03
-2.171983e-03 1.962471e-03 5.983653e-05
6.507019e-04 -4.181845e-04 1.163133e-04
6.367136e-04 -3.691782e-04 1.194499e-04
-4.268148e-04 7.887232e-03 -1.176148e-03
2.013336e-04 6.093858e-03 -3.083755e-04
-3.266890e-03 3.734359e-03 -1.543507e-04
-1.085789e-03 4.479856e-03 4.383392e-05
-1.435191e-03 5.523324e-03 -5.801790e-04
-1.791639e-03 6.858620e-03 -1.436054e-03
-2.073015e-03 8.353446e-03 -2.236097e-03
-1.526522e-03 6.841212e-03 -1.933953e-03
3.139121e-04 1.965096e-03 -1.059602e-04
-2.329549e-03 1.214774e-02 -3.155093e-03
-6.595741e-03 3.410346e-02 -1.084759e-02
-9.690241e-04 5.024603e-02 -1.739734e-02
-1.612628e-03 2.491853e-02 -8.973555e-03
-6.394809e-03 1.267654e-01 -2.372083e-02
-5.747167e-04 -5.240388e-05 5.338957e-05
9.204617e-04 1.877369e-03 1.629980e-06
-1.712336e-03 5.487729e-03 -1.147910e-03
-1.551890e-03 7.716339e-03 -1.466355e-03
-1.065688e-04 3.766121e-04 9.851862e-05
4.938425e-04 1.050425e-03 6.247805e-05
-2.386965e-03 1.011200e-02 -3.054462e-03
-4.882815e-03 7.087316e-03 -8.994522e-04
1.267034e-03 5.205401e-03 -1.924305e-04
6.784308e-04 -1.992789e-04 1.404791e-04
7.795129e-04 5.842040e-03 -2.991672e-04
8.910761e-04 7.093359e-03 -1.009179e-03
9.010444e-04 8.407424e-03 -1.936266e-03
1.095623e-03 6.311715e-03 -1.176332e-03
-1.227586e-03 6.114726e-03 -6.040251e-04
-9.499596e-04 3.266618e-04 7.701435e-05
-1.756771e-03 6.231933e-03 -1.694542e-03
1.471941e-03 8.427164e-04 2.667447e-04
-8.050344e-04 5.345776e-03 -1.171267e-04
1.734121e-03 2.314072e-03 2.187932e-04
1.381470e-03 2.111262e-03 8.701578e-05
1.640895e-03 1.507117e-03 2.621230e-04
1.463228e-03 3.222786e-03 -9.402081e-05
3.277244e-04 -5.043419e-04 6.395075e-05
-1.039325e-04 9.825438e-03 -3.136044e-03
5.155661e-03 1.501806e-03 4.176182e-03
3.135339e-03 -1.238325e-04 1.951252e-03
2.247448e-05 -6.273289e-04 2.072793e-06
-2.762431e-05 -6.109646e-04 1.250941e-06
4.112872e-03 -9.155128e-05 3.649485e-03
5.302233e-03 -6.041403e-05 6.244423e-03
7.700115e-03 1.343445e-03 9.907392e-03
1.189780e-02 3.081454e-03 1.683332e-02
1.513069e-02 9.887019e-03 2.154579e-02
2.053735e-02 3.633282e-02 3.244267e-02
1.752548e-02 8.098953e-02 2.611150e-02
9.907850e-03 1.501125e-01 -1.182393e-02
1.805778e-03 1.795413e-01 -1.523141e-02
-7.091553e-03 1.663997e-01 -3.109768e-02
-1.036680e-02 1.356235e-01 -4.425001e-02
-1.199578e-02 7.746347e-02 -2.263507e-02
-1.697188e-02 3.984135e-02 -1.440248e-02
-1.500302e-02 2.149936e-02 -5.746878e-03
-1.357111e-02 1.268551e-02 -1.907317e-03
-9.791701e-03 9.478132e-03 -3.331444e-04
-7.731392e-03 6.358584e-03 5.449787e-04
-6.033388e-03 5.024743e-03 3.576078e-04
-4.944185e-03 3.460508e-03 5.662082e-04
-3.902986e-03 2.611089e-03 4.023301e-04