# vtk DataFile Version 2.0
Simplicial Mesh Example
ASCII
DATASET UNSTRUCTURED_GRID
POINTS 113 double
-1.602225e+05 -6.889674e+04 -1.750000e+04
-1.547800e+05 -7.832338e+04 -2.375000e+04
-1.493375e+05 -8.775002e+04 -3.000000e+04
-1.487615e+05 -8.092905e+04 -2.653765e+04
-1.481854e+05 -7.410809e+04 -2.307531e+04
-1.427082e+05 -8.479848e+04 -3.000000e+04
-1.360790e+05 -8.184694e+04 -3.000000e+04
-1.421322e+05 -7.797751e+04 -2.653765e+04
-1.542039e+05 -7.150241e+04 -2.028765e+04
-8.067130e+04 -3.347828e+04 -1.750000e+04
-7.522883e+04 -4.290492e+04 -2.375000e+04
-8.111214e+04 -4.035426e+04 -2.102311e+04
-6.978636e+04 -5.233156e+04 -3.000000e+04
-7.566966e+04 -4.978090e+04 -2.727311e+04
-8.155297e+04 -4.723023e+04 -2.454623e+04
-8.304488e+04 -5.823464e+04 -3.000000e+04
-8.229893e+04 -5.273243e+04 -2.727311e+04
-7.641562e+04 -5.528310e+04 -3.000000e+04
-1.711074e+05 -5.004346e+04 -5.000000e+03
-1.656649e+05 -5.947010e+04 -1.125000e+04
-1.650889e+05 -5.264913e+04 -7.787654e+03
-1.590704e+05 -5.525481e+04 -1.057531e+04
-1.596464e+05 -6.207577e+04 -1.403765e+04
-1.578489e+05 -4.414038e+04 -5.000000e+03
-1.584596e+05 -4.969759e+04 -7.787654e+03
-1.644781e+05 -4.709192e+04 -5.000000e+03
-9.155625e+04 -1.462500e+04 -5.000000e+03
-8.611378e+04 -2.405164e+04 -1.125000e+04
-9.199708e+04 -2.150098e+04 -8.523114e+03
-8.655461e+04 -3.092762e+04 -1.477311e+04
-9.243792e+04 -2.837695e+04 -1.204623e+04
-9.818551e+04 -1.757654e+04 -5.000000e+03
-9.862635e+04 -2.445251e+04 -8.523114e+03
-1.048148e+05 -2.052808e+04 -5.000000e+03
-1.294497e+05 -7.889540e+04 -3.000000e+04
-1.228205e+05 -7.594386e+04 -3.000000e+04
-1.355029e+05 -7.502598e+04 -2.653765e+04
-1.349269e+05 -6.820501e+04 -2.307531e+04
-1.288737e+05 -7.207444e+04 -2.653765e+04
-1.095619e+05 -7.004079e+04 -3.000000e+04
-1.161912e+05 -7.299233e+04 -3.000000e+04
-1.155132e+05 -6.593317e+04 -2.643597e+04
-1.221425e+05 -6.888471e+04 -2.643597e+04
-1.214644e+05 -6.182556e+04 -2.287193e+04
-1.281957e+05 -6.501529e+04 -2.297362e+04
-9.630341e+04 -6.413771e+04 -3.000000e+04
-9.555745e+04 -5.863551e+04 -2.727311e+04
-8.967414e+04 -6.118618e+04 -3.000000e+04
-9.481150e+04 -5.313331e+04 -2.454623e+04
-8.892819e+04 -5.568397e+04 -2.727311e+04
-1.029327e+05 -6.708925e+04 -3.000000e+04
-1.022547e+05 -6.003010e+04 -2.643597e+04
-1.088839e+05 -6.298163e+04 -2.643597e+04
-1.082059e+05 -5.592248e+04 -2.287193e+04
-1.015087e+05 -5.452789e+04 -2.370908e+04
-1.052556e+05 -2.740405e+04 -8.523114e+03
-1.114440e+05 -2.347962e+04 -5.000000e+03
-1.056964e+05 -3.428003e+04 -1.204623e+04
-1.118849e+05 -3.035559e+04 -8.523114e+03
-1.180733e+05 -2.643115e+04 -5.000000e+03
-1.247026e+05 -2.938269e+04 -5.000000e+03
-1.313318e+05 -3.233423e+04 -5.000000e+03
-1.185821e+05 -3.175018e+04 -7.685965e+03
-1.190909e+05 -3.706920e+04 -1.037193e+04
-1.252113e+05 -3.470171e+04 -7.685965e+03
-1.123937e+05 -3.567461e+04 -1.120908e+04
-1.445903e+05 -3.823730e+04 -5.000000e+03
-1.452011e+05 -4.379452e+04 -7.787654e+03
-1.512196e+05 -4.118884e+04 -5.000000e+03
-1.458118e+05 -4.935173e+04 -1.057531e+04
-1.518304e+05 -4.674606e+04 -7.787654e+03
-1.379611e+05 -3.528577e+04 -5.000000e+03
-1.318406e+05 -3.765325e+04 -7.685965e+03
-1.323494e+05 -4.297228e+04 -1.037193e+04
-1.384699e+05 -4.060479e+04 -7.685965e+03
-1.390806e+05 -4.616200e+04 -1.047362e+04
-8.699544e+04 -3.780359e+04 -1.829623e+04
-9.287875e+04 -3.525292e+04 -1.556934e+04
-8.743628e+04 -4.467956e+04 -2.181934e+04
-9.331958e+04 -4.212890e+04 -1.909245e+04
-9.406554e+04 -4.763110e+04 -2.181934e+04
-8.818223e+04 -5.018177e+04 -2.454623e+04
-9.906718e+04 -3.132849e+04 -1.204623e+04
-9.950801e+04 -3.820446e+04 -1.556934e+04
-1.007628e+05 -4.902569e+04 -2.098219e+04
-1.067140e+05 -4.491807e+04 -1.741816e+04
-1.000168e+05 -4.352349e+04 -1.825531e+04
-1.062052e+05 -3.959905e+04 -1.473219e+04
-1.476094e+05 -6.728713e+04 -1.961296e+04
-1.470333e+05 -6.046616e+04 -1.615061e+04
-1.415561e+05 -7.115655e+04 -2.307531e+04
-1.409801e+05 -6.433559e+04 -1.961296e+04
-1.530518e+05 -5.786049e+04 -1.336296e+04
-1.536279e+05 -6.468145e+04 -1.682531e+04
-1.464226e+05 -5.490895e+04 -1.336296e+04
-1.524411e+05 -5.230327e+04 -1.057531e+04
-1.342489e+05 -6.114586e+04 -1.951127e+04
-1.403021e+05 -5.727643e+04 -1.604893e+04
-1.335709e+05 -5.408671e+04 -1.594724e+04
-1.396914e+05 -5.171922e+04 -1.326127e+04
-1.148352e+05 -5.887402e+04 -2.287193e+04
-1.141572e+05 -5.181486e+04 -1.930790e+04
-1.207864e+05 -5.476640e+04 -1.930790e+04
-1.201084e+05 -4.770725e+04 -1.574386e+04
-1.275177e+05 -5.795613e+04 -1.940958e+04
-1.268397e+05 -5.089698e+04 -1.584555e+04
-1.074600e+05 -5.042028e+04 -2.014504e+04
-1.134112e+05 -4.631266e+04 -1.658101e+04
-1.195997e+05 -4.238822e+04 -1.305790e+04
-1.257201e+05 -4.002074e+04 -1.037193e+04
-1.262289e+05 -4.533976e+04 -1.305790e+04
-1.129024e+05 -4.099364e+04 -1.389504e+04
-1.329601e+05 -4.852949e+04 -1.315958e+04
CELLS 192 768
3  3 2 5
3  4 3 7
3  7 5 6
3  5 7 3
3  8 0 1
3  4 8 3
3  3 1 2
3  8 1 3
3  10 9 11
3  12 10 13
3  13 11 14
3  10 11 13
3  16 15 17
3  14 16 13
3  13 17 12
3  17 13 16
3  20 18 19
3  21 20 22
3  22 19 0
3  20 19 22
3  24 23 25
3  21 24 20
3  20 25 18
3  24 25 20
3  27 26 28
3  9 27 29
3  29 28 30
3  27 28 29
3  28 26 31
3  30 28 32
3  32 31 33
3  31 32 28
3  36 6 34
3  37 36 38
3  38 34 35
3  34 38 36
3  40 39 41
3  35 40 42
3  42 41 43
3  41 42 40
3  38 35 42
3  37 38 44
3  44 42 43
3  42 44 38
3  46 45 47
3  48 46 49
3  49 47 15
3  47 49 46
3  50 45 51
3  39 50 52
3  52 51 53
3  51 52 50
3  51 45 46
3  53 51 54
3  54 46 48
3  46 54 51
3  55 33 56
3  57 55 58
3  58 56 59
3  56 58 55
3  62 59 60
3  63 62 64
3  64 60 61
3  62 60 64
3  58 59 62
3  57 58 65
3  65 62 63
3  58 62 65
3  67 66 68
3  69 67 70
3  70 68 23
3  67 68 70
3  72 61 71
3  73 72 74
3  74 71 66
3  72 71 74
3  74 66 67
3  73 74 75
3  75 67 69
3  67 75 74
3  76 30 77
3  14 76 78
3  78 77 79
3  76 77 78
3  80 48 81
3  79 80 78
3  78 81 14
3  81 78 80
3  77 30 82
3  79 77 83
3  83 82 57
3  82 83 77
3  84 48 80
3  85 84 86
3  86 80 79
3  80 86 84
3  83 57 87
3  79 83 86
3  86 87 85
3  83 87 86
3  88 4 90
3  89 88 91
3  91 90 37
3  90 91 88
3  92 21 93
3  89 92 88
3  88 93 4
3  92 93 88
3  94 69 95
3  89 94 92
3  92 95 21
3  94 95 92
3  91 37 96
3  89 91 97
3  97 96 98
3  96 97 91
3  99 69 94
3  98 99 97
3  97 94 89
3  94 97 99
3  100 53 101
3  43 100 102
3  102 101 103
3  101 102 100
3  104 43 102
3  98 104 105
3  105 102 103
3  102 105 104
3  101 53 106
3  103 101 107
3  107 106 85
3  106 107 101
3  108 63 109
3  103 108 110
3  110 109 73
3  108 109 110
3  111 63 108
3  85 111 107
3  107 108 103
3  111 108 107
3  110 73 112
3  103 110 105
3  105 112 98
3  112 105 110
3  22 0 8
3  21 22 93
3  93 8 4
3  8 93 22
3  36 37 90
3  6 36 7
3  7 90 4
3  90 7 36
3  43 104 44
3  104 98 96
3  44 96 37
3  44 104 96
3  70 23 24
3  69 70 95
3  95 24 21
3  24 95 70
3  29 30 76
3  9 29 11
3  11 76 14
3  76 11 29
3  15 16 49
3  16 14 81
3  49 81 48
3  49 16 81
3  33 55 32
3  55 57 82
3  32 82 30
3  32 55 82
3  48 84 54
3  84 85 106
3  54 106 53
3  54 84 106
3  69 99 75
3  99 98 112
3  75 112 73
3  99 112 75
3  65 63 111
3  57 65 87
3  87 111 85
3  65 111 87
3  64 61 72
3  63 64 109
3  109 72 73
3  72 109 64
3  100 43 41
3  53 100 52
3  52 41 39
3  100 41 52
CELL_TYPES 192
5
5
5
5
5
5
5
5
5
5
5
5
5
5
5
5
5
5
5
5
5
5
5
5
5
5
5
5
5
5
5
5
5
5
5
5
5
5
5
5
5
5
5
5
5
5
5
5
5
5
5
5
5
5
5
5
5
5
5
5
5
5
5
5
5
5
5
5
5
5
5
5
5
5
5
5
5
5
5
5
5
5
5
5
5
5
5
5
5
5
5
5
5
5
5
5
5
5
5
5
5
5
5
5
5
5
5
5
5
5
5
5
5
5
5
5
5
5
5
5
5
5
5
5
5
5
5
5
5
5
5
5
5
5
5
5
5
5
5
5
5
5
5
5
5
5
5
5
5
5
5
5
5
5
5
5
5
5
5
5
5
5
5
5
5
5
5
5
5
5
5
5
5
5
5
5
5
5
5
5
5
5
5
5
5
5
5
5
5
5
5
5
POINT_DATA 113
VECTORS normal_dir double
2.033683e-01 -4.567727e-01 8.660254e-01
2.033683e-01 -4.567727e-01 8.660254e-01
2.033683e-01 -4.567727e-01 8.660254e-01
2.033683e-01 -4.567727e-01 8.660254e-01
2.033683e-01 -4.567727e-01 8.660254e-01
2.033683e-01 -4.567727e-01 8.660254e-01
2.033683e-01 -4.567727e-01 8.660254e-01
2.033683e-01 -4.567727e-01 8.660254e-01
2.033683e-01 -4.567727e-01 8.660254e-01
2.033683e-01 -4.567727e-01 8.660254e-01
2.033683e-01 -4.567727e-01 8.660254e-01
2.033683e-01 -4.567727e-01 8.660254e-01
2.033683e-01 -4.567727e-01 8.660254e-01
2.033683e-01 -4.567727e-01 8.660254e-01
2.033683e-01 -4.567727e-01 8.660254e-01
2.033683e-01 -4.567727e-01 8.660254e-01
2.033683e-01 -4.567727e-01 8.660254e-01
2.033683e-01 -4.567727e-01 8.660254e-01
2.033683e-01 -4.567727e-01 8.660254e-01
2.033683e-01 -4.567727e-01 8.660254e-01
2.033683e-01 -4.567727e-01 8.660254e-01
2.033683e-01 -4.567727e-01 8.660254e-01
2.033683e-01 -4.567727e-01 8.660254e-01
2.033683e-01 -4.567727e-01 8.660254e-01
2.033683e-01 -4.567727e-01 8.660254e-01
2.033683e-01 -4.567727e-01 8.660254e-01
2.033683e-01 -4.567727e-01 8.660254e-01
2.033683e-01 -4.567727e-01 8.660254e-01
2.033683e-01 -4.567727e-01 8.660254e-01
2.033683e-01 -4.567727e-01 8.660254e-01
2.033683e-01 -4.567727e-01 8.660254e-01
2.033683e-01 -4.567727e-01 8.660254e-01
2.033683e-01 -4.567727e-01 8.660254e-01
2.033683e-01 -4.567727e-01 8.660254e-01
2.033683e-01 -4.567727e-01 8.660254e-01
2.033683e-01 -4.567727e-01 8.660254e-01
2.033683e-01 -4.567727e-01 8.660254e-01
2.033683e-01 -4.567727e-01 8.660254e-01
2.033683e-01 -4.567727e-01 8.660254e-01
2.033683e-01 -4.567727e-01 8.660254e-01
2.033683e-01 -4.567727e-01 8.660254e-01
2.033683e-01 -4.567727e-01 8.660254e-01
2.033683e-01 -4.567727e-01 8.660254e-01
2.033683e-01 -4.567727e-01 8.660254e-01
2.033683e-01 -4.567727e-01 8.660254e-01
2.033683e-01 -4.567727e-01 8.660254e-01
2.033683e-01 -4.567727e-01 8.660254e-01
2.033683e-01 -4.567727e-01 8.660254e-01
2.033683e-01 -4.567727e-01 8.660254e-01
2.033683e-01 -4.567727e-01 8.660254e-01
2.033683e-01 -4.567727e-01 8.660254e-01
2.033683e-01 -4.567727e-01 8.660254e-01
2.033683e-01 -4.567727e-01 8.660254e-01
2.033683e-01 -4.567727e-01 8.660254e-01
2.033683e-01 -4.567727e-01 8.660254e-01
2.033683e-01 -4.567727e-01 8.660254e-01
2.033683e-01 -4.567727e-01 8.660254e-01
2.033683e-01 -4.567727e-01 8.660254e-01
2.033683e-01 -4.567727e-01 8.660254e-01
2.033683e-01 -4.567727e-01 8.660254e-01
2.033683e-01 -4.567727e-01 8.660254e-01
2.033683e-01 -4.567727e-01 8.660254e-01
2.033683e-01 -4.567727e-01 8.660254e-01
2.033683e-01 -4.567727e-01 8.660254e-01
2.033683e-01 -4.567727e-01 8.660254e-01
2.033683e-01 -4.567727e-01 8.660254e-01
2.033683e-01 -4.567727e-01 8.660254e-01
2.033683e-01 -4.567727e-01 8.660254e-01
2.033683e-01 -4.567727e-01 8.660254e-01
2.033683e-01 -4.567727e-01 8.660254e-01
2.033683e-01 -4.567727e-01 8.660254e-01
2.033683e-01 -4.567727e-01 8.660254e-01
2.033683e-01 -4.567727e-01 8.660254e-01
2.033683e-01 -4.567727e-01 8.660254e-01
2.033683e-01 -4.567727e-01 8.660254e-01
2.033683e-01 -4.567727e-01 8.660254e-01
2.033683e-01 -4.567727e-01 8.660254e-01
2.033683e-01 -4.567727e-01 8.660254e-01
2.033683e-01 -4.567727e-01 8.660254e-01
2.033683e-01 -4.567727e-01 8.660254e-01
2.033683e-01 -4.567727e-01 8.660254e-01
2.033683e-01 -4.567727e-01 8.660254e-01
2.033683e-01 -4.567727e-01 8.660254e-01
2.033683e-01 -4.567727e-01 8.660254e-01
2.033683e-01 -4.567727e-01 8.660254e-01
2.033683e-01 -4.567727e-01 8.660254e-01
2.033683e-01 -4.567727e-01 8.660254e-01
2.033683e-01 -4.567727e-01 8.660254e-01
2.033683e-01 -4.567727e-01 8.660254e-01
2.033683e-01 -4.567727e-01 8.660254e-01
2.033683e-01 -4.567727e-01 8.660254e-01
2.033683e-01 -4.567727e-01 8.660254e-01
2.033683e-01 -4.567727e-01 8.660254e-01
2.033683e-01 -4.567727e-01 8.660254e-01
2.033683e-01 -4.567727e-01 8.660254e-01
2.033683e-01 -4.567727e-01 8.660254e-01
2.033683e-01 -4.567727e-01 8.660254e-01
2.033683e-01 -4.567727e-01 8.660254e-01
2.033683e-01 -4.567727e-01 8.660254e-01
2.033683e-01 -4.567727e-01 8.660254e-01
2.033683e-01 -4.567727e-01 8.660254e-01
2.033683e-01 -4.567727e-01 8.660254e-01
2.033683e-01 -4.567727e-01 8.660254e-01
2.033683e-01 -4.567727e-01 8.660254e-01
2.033683e-01 -4.567727e-01 8.660254e-01
2.033683e-01 -4.567727e-01 8.660254e-01
2.033683e-01 -4.567727e-01 8.660254e-01
2.033683e-01 -4.567727e-01 8.660254e-01
2.033683e-01 -4.567727e-01 8.660254e-01
2.033683e-01 -4.567727e-01 8.660254e-01
2.033683e-01 -4.567727e-01 8.660254e-01
2.033683e-01 -4.567727e-01 8.660254e-01
2.033683e-01 -4.567727e-01 8.660254e-01
VECTORS strike_dir double
9.135455e-01 4.067366e-01 0.000000e+00
9.135455e-01 4.067366e-01 0.000000e+00
9.135455e-01 4.067366e-01 0.000000e+00
9.135455e-01 4.067366e-01 0.000000e+00
9.135455e-01 4.067366e-01 0.000000e+00
9.135455e-01 4.067366e-01 0.000000e+00
9.135455e-01 4.067366e-01 0.000000e+00
9.135455e-01 4.067366e-01 0.000000e+00
9.135455e-01 4.067366e-01 0.000000e+00
9.135455e-01 4.067366e-01 0.000000e+00
9.135455e-01 4.067366e-01 0.000000e+00
9.135455e-01 4.067366e-01 0.000000e+00
9.135455e-01 4.067366e-01 0.000000e+00
9.135455e-01 4.067366e-01 0.000000e+00
9.135455e-01 4.067366e-01 0.000000e+00
9.135455e-01 4.067366e-01 0.000000e+00
9.135455e-01 4.067366e-01 0.000000e+00
9.135455e-01 4.067366e-01 0.000000e+00
9.135455e-01 4.067366e-01 0.000000e+00
9.135455e-01 4.067366e-01 0.000000e+00
9.135455e-01 4.067366e-01 0.000000e+00
9.135455e-01 4.067366e-01 0.000000e+00
9.135455e-01 4.067366e-01 0.000000e+00
9.135455e-01 4.067366e-01 0.000000e+00
9.135455e-01 4.067366e-01 0.000000e+00
9.135455e-01 4.067366e-01 0.000000e+00
9.135455e-01 4.067366e-01 0.000000e+00
9.135455e-01 4.067366e-01 0.000000e+00
9.135455e-01 4.067366e-01 0.000000e+00
9.135455e-01 4.067366e-01 0.000000e+00
9.135455e-01 4.067366e-01 0.000000e+00
9.135455e-01 4.067366e-01 0.000000e+00
9.135455e-01 4.067366e-01 0.000000e+00
9.135455e-01 4.067366e-01 0.000000e+00
9.135455e-01 4.067366e-01 0.000000e+00
9.135455e-01 4.067366e-01 0.000000e+00
9.135455e-01 4.067366e-01 0.000000e+00
9.135455e-01 4.067366e-01 0.000000e+00
9.135455e-01 4.067366e-01 0.000000e+00
9.135455e-01 4.067366e-01 0.000000e+00
9.135455e-01 4.067366e-01 0.000000e+00
9.135455e-01 4.067366e-01 0.000000e+00
9.135455e-01 4.067366e-01 0.000000e+00
9.135455e-01 4.067366e-01 0.000000e+00
9.135455e-01 4.067366e-01 0.000000e+00
9.135455e-01 4.067366e-01 0.000000e+00
9.135455e-01 4.067366e-01 0.000000e+00
9.135455e-01 4.067366e-01 0.000000e+00
9.135455e-01 4.067366e-01 0.000000e+00
9.135455e-01 4.067366e-01 0.000000e+00
9.135455e-01 4.067366e-01 0.000000e+00
9.135455e-01 4.067366e-01 0.000000e+00
9.135455e-01 4.067366e-01 0.000000e+00
9.135455e-01 4.067366e-01 0.000000e+00
9.135455e-01 4.067366e-01 0.000000e+00
9.135455e-01 4.067366e-01 0.000000e+00
9.135455e-01 4.067366e-01 0.000000e+00
9.135455e-01 4.067366e-01 0.000000e+00
9.135455e-01 4.067366e-01 0.000000e+00
9.135455e-01 4.067366e-01 0.000000e+00
9.135455e-01 4.067366e-01 0.000000e+00
9.135455e-01 4.067366e-01 0.000000e+00
9.135455e-01 4.067366e-01 0.000000e+00
9.135455e-01 4.067366e-01 0.000000e+00
9.135455e-01 4.067366e-01 0.000000e+00
9.135455e-01 4.067366e-01 0.000000e+00
9.135455e-01 4.067366e-01 0.000000e+00
9.135455e-01 4.067366e-01 0.000000e+00
9.135455e-01 4.067366e-01 0.000000e+00
9.135455e-01 4.067366e-01 0.000000e+00
9.135455e-01 4.067366e-01 0.000000e+00
9.135455e-01 4.067366e-01 0.000000e+00
9.135455e-01 4.067366e-01 0.000000e+00
9.135455e-01 4.067366e-01 0.000000e+00
9.135455e-01 4.067366e-01 0.000000e+00
9.135455e-01 4.067366e-01 0.000000e+00
9.135455e-01 4.067366e-01 0.000000e+00
9.135455e-01 4.067366e-01 0.000000e+00
9.135455e-01 4.067366e-01 0.000000e+00
9.135455e-01 4.067366e-01 0.000000e+00
9.135455e-01 4.067366e-01 0.000000e+00
9.135455e-01 4.067366e-01 0.000000e+00
9.135455e-01 4.067366e-01 0.000000e+00
9.135455e-01 4.067366e-01 0.000000e+00
9.135455e-01 4.067366e-01 0.000000e+00
9.135455e-01 4.067366e-01 0.000000e+00
9.135455e-01 4.067366e-01 0.000000e+00
9.135455e-01 4.067366e-01 0.000000e+00
9.135455e-01 4.067366e-01 0.000000e+00
9.135455e-01 4.067366e-01 0.000000e+00
9.135455e-01 4.067366e-01 0.000000e+00
9.135455e-01 4.067366e-01 0.000000e+00
9.135455e-01 4.067366e-01 0.000000e+00
9.135455e-01 4.067366e-01 0.000000e+00
9.135455e-01 4.067366e-01 0.000000e+00
9.135455e-01 4.067366e-01 0.000000e+00
9.135455e-01 4.067366e-01 0.000000e+00
9.135455e-01 4.067366e-01 0.000000e+00
9.135455e-01 4.067366e-01 0.000000e+00
9.135455e-01 4.067366e-01 0.000000e+00
9.135455e-01 4.067366e-01 0.000000e+00
9.135455e-01 4.067366e-01 0.000000e+00
9.135455e-01 4.067366e-01 0.000000e+00
9.135455e-01 4.067366e-01 0.000000e+00
9.135455e-01 4.067366e-01 0.000000e+00
9.135455e-01 4.067366e-01 0.000000e+00
9.135455e-01 4.067366e-01 0.000000e+00
9.135455e-01 4.067366e-01 0.000000e+00
9.135455e-01 4.067366e-01 0.000000e+00
9.135455e-01 4.067366e-01 0.000000e+00
9.135455e-01 4.067366e-01 0.000000e+00
9.135455e-01 4.067366e-01 0.000000e+00
9.135455e-01 4.067366e-01 0.000000e+00
VECTORS dip_dir double
-3.522443e-01 7.911536e-01 5.000000e-01
-3.522443e-01 7.911536e-01 5.000000e-01
-3.522443e-01 7.911536e-01 5.000000e-01
-3.522443e-01 7.911536e-01 5.000000e-01
-3.522443e-01 7.911536e-01 5.000000e-01
-3.522443e-01 7.911536e-01 5.000000e-01
-3.522443e-01 7.911536e-01 5.000000e-01
-3.522443e-01 7.911536e-01 5.000000e-01
-3.522443e-01 7.911536e-01 5.000000e-01
-3.522443e-01 7.911536e-01 5.000000e-01
-3.522443e-01 7.911536e-01 5.000000e-01
-3.522443e-01 7.911536e-01 5.000000e-01
-3.522443e-01 7.911536e-01 5.000000e-01
-3.522443e-01 7.911536e-01 5.000000e-01
-3.522443e-01 7.911536e-01 5.000000e-01
-3.522443e-01 7.911536e-01 5.000000e-01
-3.522443e-01 7.911536e-01 5.000000e-01
-3.522443e-01 7.911536e-01 5.000000e-01
-3.522443e-01 7.911536e-01 5.000000e-01
-3.522443e-01 7.911536e-01 5.000000e-01
-3.522443e-01 7.911536e-01 5.000000e-01
-3.522443e-01 7.911536e-01 5.000000e-01
-3.522443e-01 7.911536e-01 5.000000e-01
-3.522443e-01 7.911536e-01 5.000000e-01
-3.522443e-01 7.911536e-01 5.000000e-01
-3.522443e-01 7.911536e-01 5.000000e-01
-3.522443e-01 7.911536e-01 5.000000e-01
-3.522443e-01 7.911536e-01 5.000000e-01
-3.522443e-01 7.911536e-01 5.000000e-01
-3.522443e-01 7.911536e-01 5.000000e-01
-3.522443e-01 7.911536e-01 5.000000e-01
-3.522443e-01 7.911536e-01 5.000000e-01
-3.522443e-01 7.911536e-01 5.000000e-01
-3.522443e-01 7.911536e-01 5.000000e-01
-3.522443e-01 7.911536e-01 5.000000e-01
-3.522443e-01 7.911536e-01 5.000000e-01
-3.522443e-01 7.911536e-01 5.000000e-01
-3.522443e-01 7.911536e-01 5.000000e-01
-3.522443e-01 7.911536e-01 5.000000e-01
-3.522443e-01 7.911536e-01 5.000000e-01
-3.522443e-01 7.911536e-01 5.000000e-01
-3.522443e-01 7.911536e-01 5.000000e-01
-3.522443e-01 7.911536e-01 5.000000e-01
-3.522443e-01 7.911536e-01 5.000000e-01
-3.522443e-01 7.911536e-01 5.000000e-01
-3.522443e-01 7.911536e-01 5.000000e-01
-3.522443e-01 7.911536e-01 5.000000e-01
-3.522443e-01 7.911536e-01 5.000000e-01
-3.522443e-01 7.911536e-01 5.000000e-01
-3.522443e-01 7.911536e-01 5.000000e-01
-3.522443e-01 7.911536e-01 5.000000e-01
-3.522443e-01 7.911536e-01 5.000000e-01
-3.522443e-01 7.911536e-01 5.000000e-01
-3.522443e-01 7.911536e-01 5.000000e-01
-3.522443e-01 7.911536e-01 5.000000e-01
-3.522443e-01 7.911536e-01 5.000000e-01
-3.522443e-01 7.911536e-01 5.000000e-01
-3.522443e-01 7.911536e-01 5.000000e-01
-3.522443e-01 7.911536e-01 5.000000e-01
-3.522443e-01 7.911536e-01 5.000000e-01
-3.522443e-01 7.911536e-01 5.000000e-01
-3.522443e-01 7.911536e-01 5.000000e-01
-3.522443e-01 7.911536e-01 5.000000e-01
-3.522443e-01 7.911536e-01 5.000000e-01
-3.522443e-01 7.911536e-01 5.000000e-01
-3.522443e-01 7.911536e-01 5.000000e-01
-3.522443e-01 7.911536e-01 5.000000e-01
-3.522443e-01 7.911536e-01 5.000000e-01
-3.522443e-01 7.911536e-01 5.000000e-01
-3.522443e-01 7.911536e-01 5.000000e-01
-3.522443e-01 7.911536e-01 5.000000e-01
-3.522443e-01 7.911536e-01 5.000000e-01
-3.522443e-01 7.911536e-01 5.000000e-01
-3.522443e-01 7.911536e-01 5.000000e-01
-3.522443e-01 7.911536e-01 5.000000e-01
-3.522443e-01 7.911536e-01 5.000000e-01
-3.522443e-01 7.911536e-01 5.000000e-01
-3.522443e-01 7.911536e-01 5.000000e-01
-3.522443e-01 7.911536e-01 5.000000e-01
-3.522443e-01 7.911536e-01 5.000000e-01
-3.522443e-01 7.911536e-01 5.000000e-01
-3.522443e-01 7.911536e-01 5.000000e-01
-3.522443e-01 7.911536e-01 5.000000e-01
-3.522443e-01 7.911536e-01 5.000000e-01
-3.522443e-01 7.911536e-01 5.000000e-01
-3.522443e-01 7.911536e-01 5.000000e-01
-3.522443e-01 7.911536e-01 5.000000e-01
-3.522443e-01 7.911536e-01 5.000000e-01
-3.522443e-01 7.911536e-01 5.000000e-01
-3.522443e-01 7.911536e-01 5.000000e-01
-3.522443e-01 7.911536e-01 5.000000e-01
-3.522443e-01 7.911536e-01 5.000000e-01
-3.522443e-01 7.911536e-01 5.000000e-01
-3.522443e-01 7.911536e-01 5.000000e-01
-3.522443e-01 7.911536e-01 5.000000e-01
-3.522443e-01 7.911536e-01 5.000000e-01
-3.522443e-01 7.911536e-01 5.000000e-01
-3.522443e-01 7.911536e-01 5.000000e-01
-3.522443e-01 7.911536e-01 5.000000e-01
-3.522443e-01 7.911536e-01 5.000000e-01
-3.522443e-01 7.911536e-01 5.000000e-01
-3.522443e-01 7.911536e-01 5.000000e-01
-3.522443e-01 7.911536e-01 5.000000e-01
-3.522443e-01 7.911536e-01 5.000000e-01
-3.522443e-01 7.911536e-01 5.000000e-01
-3.522443e-01 7.911536e-01 5.000000e-01
-3.522443e-01 7.911536e-01 5.000000e-01
-3.522443e-01 7.911536e-01 5.000000e-01
-3.522443e-01 7.911536e-01 5.000000e-01
-3.522443e-01 7.911536e-01 5.000000e-01
-3.522443e-01 7.911536e-01 5.000000e-01
-3.522443e-01 7.911536e-01 5.000000e-01
-3.522443e-01 7.911536e-01 5.000000e-01
SCALARS friction_coefficient double 1
LOOKUP_TABLE default
2.000000e-01
2.000000e-01
2.000000e-01
2.000000e-01
2.000000e-01
2.000000e-01
2.000000e-01
2.000000e-01
2.000000e-01
2.000000e-01
2.000000e-01
2.000000e-01
2.000000e-01
2.000000e-01
2.000000e-01
2.000000e-01
2.000000e-01
2.000000e-01
2.000000e-01
2.000000e-01
2.000000e-01
2.000000e-01
2.000000e-01
2.000000e-01
2.000000e-01
2.000000e-01
2.000000e-01
2.000000e-01
2.000000e-01
2.000000e-01
2.000000e-01
2.000000e-01
2.000000e-01
2.000000e-01
2.000000e-01
2.000000e-01
2.000000e-01
2.000000e-01
2.000000e-01
2.000000e-01
2.000000e-01
2.000000e-01
2.000000e-01
2.000000e-01
2.000000e-01
2.000000e-01
2.000000e-01
2.000000e-01
2.000000e-01
2.000000e-01
2.000000e-01
2.000000e-01
2.000000e-01
2.000000e-01
2.000000e-01
2.000000e-01
2.000000e-01
2.000000e-01
2.000000e-01
2.000000e-01
2.000000e-01
2.000000e-01
2.000000e-01
2.000000e-01
2.000000e-01
2.000000e-01
2.000000e-01
2.000000e-01
2.000000e-01
2.000000e-01
2.000000e-01
2.000000e-01
2.000000e-01
2.000000e-01
2.000000e-01
2.000000e-01
2.000000e-01
2.000000e-01
2.000000e-01
2.000000e-01
2.000000e-01
2.000000e-01
2.000000e-01
2.000000e-01
2.000000e-01
2.000000e-01
2.000000e-01
2.000000e-01
2.000000e-01
2.000000e-01
2.000000e-01
2.000000e-01
2.000000e-01
2.000000e-01
2.000000e-01
2.000000e-01
2.000000e-01
2.000000e-01
2.000000e-01
2.000000e-01
2.000000e-01
2.000000e-01
2.000000e-01
2.000000e-01
2.000000e-01
2.000000e-01
2.000000e-01
2.000000e-01
2.000000e-01
2.000000e-01
2.000000e-01
2.000000e-01
2.000000e-01
SCALARS cohesion double 1
LOOKUP_TABLE default
0.000000e+00
0.000000e+00
0.000000e+00
0.000000e+00
0.000000e+00
0.000000e+00
0.000000e+00
0.000000e+00
0.000000e+00
0.000000e+00
0.000000e+00
0.000000e+00
0.000000e+00
0.000000e+00
0.000000e+00
0.000000e+00
0.000000e+00
0.000000e+00
0.000000e+00
0.000000e+00
0.000000e+00
0.000000e+00
0.000000e+00
0.000000e+00
0.000000e+00
0.000000e+00
0.000000e+00
0.000000e+00
0.000000e+00
0.000000e+00
0.000000e+00
0.000000e+00
0.000000e+00
0.000000e+00
0.000000e+00
0.000000e+00
0.000000e+00
0.000000e+00
0.000000e+00
0.000000e+00
0.000000e+00
0.000000e+00
0.000000e+00
0.000000e+00
0.000000e+00
0.000000e+00
0.000000e+00
0.000000e+00
0.000000e+00
0.000000e+00
0.000000e+00
0.000000e+00
0.000000e+00
0.000000e+00
0.000000e+00
0.000000e+00
0.000000e+00
0.000000e+00
0.000000e+00
0.000000e+00
0.000000e+00
0.000000e+00
0.000000e+00
0.000000e+00
0.000000e+00
0.000000e+00
0.000000e+00
0.000000e+00
0.000000e+00
0.000000e+00
0.000000e+00
0.000000e+00
0.000000e+00
0.000000e+00
0.000000e+00
0.000000e+00
0.000000e+00
0.000000e+00
0.000000e+00
0.000000e+00
0.000000e+00
0.000000e+00
0.000000e+00
0.000000e+00
0.000000e+00
0.000000e+00
0.000000e+00
0.000000e+00
0.000000e+00
0.000000e+00
0.000000e+00
0.000000e+00
0.000000e+00
0.000000e+00
0.000000e+00
0.000000e+00
0.000000e+00
0.000000e+00
0.000000e+00
0.000000e+00
0.000000e+00
0.000000e+00
0.000000e+00
0.000000e+00
0.000000e+00
0.000000e+00
0.000000e+00
0.000000e+00
0.000000e+00
0.000000e+00
0.000000e+00
0.000000e+00
0.000000e+00
