# vtk DataFile Version 2.0
Simplicial Mesh Example
ASCII
DATASET UNSTRUCTURED_GRID
POINTS 9196 double
3.320296e+05 -1.479713e+05 -5.000000e+04
3.230490e+05 -1.698867e+05 -2.450301e+04
3.473967e+05 -1.610091e+05 -2.499295e+04
3.230191e+05 -1.453594e+05 -2.376374e+04
3.000000e+05 -1.659466e+05 0.000000e+00
3.323841e+05 -1.500853e+05 0.000000e+00
3.000000e+05 -1.298234e+05 -5.000000e+04
3.211390e+05 -1.219510e+05 -2.456343e+04
3.000000e+05 -1.488492e+05 -2.774542e+04
3.000000e+05 -1.638587e+05 -5.000000e+04
-3.410447e+05 -3.313729e+05 -5.000000e+04
-3.562722e+05 -3.568159e+05 -2.596779e+04
-3.399470e+05 -3.173800e+05 -2.518749e+04
-3.709613e+05 -3.293268e+05 -2.460153e+04
8.320003e+04 -3.000000e+05 -2.235380e+04
1.000000e+05 -3.000000e+05 0.000000e+00
8.376766e+04 -3.323560e+05 0.000000e+00
1.022059e+05 -3.232166e+05 -2.436054e+04
9.218191e+04 -3.479439e+05 -2.506288e+04
7.450652e+04 -3.246631e+05 -2.586070e+04
8.376391e+04 -3.320935e+05 -5.000000e+04
1.000000e+05 -3.000000e+05 -5.000000e+04
6.666667e+04 -3.000000e+05 -5.000000e+04
4.909161e+04 -3.211949e+05 -2.159753e+04
-3.000000e+05 -2.284991e+05 -5.000000e+04
-3.319474e+05 -2.124896e+05 -5.000000e+04
-3.218152e+05 -2.373449e+05 -2.716838e+04
-3.186433e+05 -2.130922e+05 -3.089857e+04
3.680760e+05 -6.909438e+04 0.000000e+00
3.760404e+05 -8.535114e+04 -2.432411e+04
3.481610e+05 -6.095230e+04 -2.499963e+04
3.758419e+05 -5.047205e+04 -2.434620e+04
-3.000000e+05 -2.326501e+05 0.000000e+00
-3.000000e+05 -2.125115e+05 -2.265069e+04
-3.000000e+05 -1.989752e+05 0.000000e+00
-3.227151e+05 -1.919352e+05 -2.817559e+04
-3.324295e+05 -2.170264e+05 0.000000e+00
-2.490803e+05 -3.000000e+05 -2.221961e+04
-2.515393e+05 -3.324613e+05 0.000000e+00
-2.666667e+05 -3.000000e+05 0.000000e+00
-2.738346e+05 -3.252416e+05 -2.491374e+04
3.676956e+05 -6.866168e+04 -5.000000e+04
4.000000e+05 -8.695652e+04 -5.000000e+04
4.000000e+05 -5.217391e+04 -5.000000e+04
4.000000e+05 -6.957979e+04 -2.232138e+04
-2.333333e+05 -3.000000e+05 -5.000000e+04
-2.666667e+05 -3.000000e+05 -5.000000e+04
-2.512538e+05 -3.321783e+05 -5.000000e+04
-2.508504e+05 -3.238766e+05 -2.894778e+04
-2.288410e+05 -3.237531e+05 -2.554757e+04
-2.332968e+05 -3.501801e+05 -2.524712e+04
-1.499969e+05 -3.000000e+05 -2.764283e+04
-1.666667e+05 -3.000000e+05 0.000000e+00
-1.716166e+05 -3.233333e+05 -2.542063e+04
-1.478789e+05 -3.226382e+05 -2.533861e+04
-1.507909e+05 -3.323848e+05 0.000000e+00
-1.630826e+05 -3.498393e+05 -2.503121e+04
-1.507405e+05 -3.321164e+05 -5.000000e+04
-1.194653e+05 -3.220088e+05 -2.222167e+04
-1.333333e+05 -3.000000e+05 -5.000000e+04
-1.666667e+05 -3.000000e+05 -5.000000e+04
-1.043477e+05 4.000000e+05 -2.232281e+04
-1.038755e+05 3.680862e+05 0.000000e+00
-1.217391e+05 4.000000e+05 0.000000e+00
-1.224620e+05 3.788441e+05 -2.436654e+04
-1.217391e+05 4.000000e+05 -5.000000e+04
-9.211340e+04 3.779330e+05 -2.656844e+04
-6.923876e+04 -3.678233e+05 -5.000000e+04
-8.695652e+04 -4.000000e+05 -5.000000e+04
-5.217391e+04 -4.000000e+05 -5.000000e+04
-6.956714e+04 -4.000000e+05 -2.232106e+04
-1.249943e+05 3.519836e+05 -2.486759e+04
-1.038072e+05 3.678091e+05 -5.000000e+04
-1.739130e+04 -4.000000e+05 -5.000000e+04
-3.460350e+04 -3.678269e+05 -5.000000e+04
-3.478387e+04 -4.000000e+05 -2.232106e+04
-1.651509e+04 -3.754742e+05 -2.442335e+04
-8.376345e+04 3.320934e+05 -5.000000e+04
-1.000000e+05 3.000000e+05 -5.000000e+04
-8.343627e+04 3.000000e+05 -2.764981e+04
-1.026187e+05 3.239050e+05 -2.445309e+04
-6.666667e+04 3.000000e+05 -5.000000e+04
-5.147032e+04 3.217565e+05 -2.303829e+04
4.000000e+05 3.304348e+05 -5.000000e+04
4.000000e+05 3.130499e+05 -2.232112e+04
4.000000e+05 3.478935e+05 -2.235349e+04
3.674886e+05 3.295924e+05 -2.467361e+04
-6.033593e+04 3.477011e+05 -2.439908e+04
-7.701272e+04 3.234532e+05 -1.862781e+04
-8.379954e+04 3.323534e+05 0.000000e+00
-9.028036e+04 3.505284e+05 -2.483995e+04
3.000000e+05 -8.185378e+04 -2.769067e+04
3.000000e+05 -6.540655e+04 0.000000e+00
3.219834e+05 -9.262369e+04 -2.356665e+04
3.212381e+05 -6.353317e+04 -2.568389e+04
3.320030e+05 -7.972620e+04 -5.000000e+04
3.000000e+05 -4.823862e+04 -2.768751e+04
3.000000e+05 -6.175270e+04 -5.000000e+04
3.319980e+05 -4.560520e+04 -5.000000e+04
1.000000e+05 3.000000e+05 0.000000e+00
1.285319e+05 3.220153e+05 -2.330358e+04
1.166485e+05 3.000000e+05 -2.764255e+04
9.924408e+04 3.212454e+05 -2.557582e+04
1.172876e+05 3.321041e+05 -5.000000e+04
1.000000e+05 3.000000e+05 -5.000000e+04
1.172617e+05 3.323725e+05 0.000000e+00
1.739130e+04 -4.000000e+05 -5.000000e+04
3.478141e+04 -4.000000e+05 -2.232106e+04
3.460470e+04 -3.678270e+05 -5.000000e+04
1.646691e+04 -3.753828e+05 -2.432691e+04
9.656745e+04 3.481700e+05 -2.494853e+04
3.680819e+05 1.387484e+05 0.000000e+00
3.789347e+05 1.274418e+05 -2.657151e+04
3.531101e+05 1.597755e+05 -2.518599e+04
3.792098e+05 1.574583e+05 -2.441774e+04
4.000000e+05 1.565217e+05 0.000000e+00
4.000000e+05 1.391303e+05 -2.231930e+04
6.857177e+00 3.678309e+05 -5.000000e+04
1.673721e+04 3.320840e+05 -5.000000e+04
3.460423e+04 3.678269e+05 -5.000000e+04
2.880282e+04 3.508021e+05 -2.489257e+04
-3.461370e+04 -3.681008e+05 0.000000e+00
-1.739130e+04 -4.000000e+05 0.000000e+00
-1.676283e+04 3.320851e+05 -5.000000e+04
1.537478e+03 3.361402e+05 -2.528450e+04
3.679848e+05 1.390962e+05 -5.000000e+04
-4.999978e+04 -3.000000e+05 -2.235748e+04
-1.678469e+04 -3.000000e+05 -2.764887e+04
-1.676668e+04 -3.323444e+05 0.000000e+00
-5.499684e+04 -3.228669e+05 -2.776930e+04
4.000000e+05 1.565217e+05 -5.000000e+04
3.676239e+05 -2.421373e+05 -5.000000e+04
4.000000e+05 -2.434785e+05 -2.767896e+04
3.747803e+05 -2.281317e+05 -2.552755e+04
3.782485e+05 -2.607848e+05 -2.580555e+04
-3.128530e+05 -3.661813e+05 -5.000000e+04
-2.847026e+05 -3.321560e+05 -5.000000e+04
-3.161470e+05 -3.277621e+05 -5.000000e+04
-3.120399e+05 -3.401367e+05 -2.465985e+04
3.512666e+05 -2.655302e+05 -2.501422e+04
3.679951e+05 -2.423193e+05 0.000000e+00
4.000000e+05 -2.608696e+05 0.000000e+00
-1.455192e-10 3.000000e+05 -5.000000e+04
-1.665884e+04 3.000000e+05 -2.764283e+04
1.678621e+04 3.000000e+05 -2.764891e+04
3.000000e+05 -2.490234e+05 -2.248769e+04
3.324577e+05 -2.511100e+05 0.000000e+00
3.238293e+05 -2.640014e+05 -2.441041e+04
3.212088e+05 -2.325011e+05 -2.423874e+04
3.320637e+05 -2.503757e+05 -5.000000e+04
3.463683e+05 -2.303855e+05 -2.500317e+04
-3.698054e+05 -3.472763e+05 0.000000e+00
-3.663396e+05 -3.129808e+05 0.000000e+00
-3.315797e+05 -3.410949e+05 0.000000e+00
3.000000e+05 -2.319293e+05 -5.000000e+04
1.730839e+05 3.678997e+05 -5.000000e+04
1.571942e+05 3.749461e+05 -2.554585e+04
1.947972e+05 3.532715e+05 -2.489915e+04
1.912984e+05 3.786912e+05 -2.581857e+04
1.913043e+05 4.000000e+05 -5.000000e+04
1.739026e+05 4.000000e+05 -2.767885e+04
3.704421e+05 3.503181e+05 -5.000000e+04
-3.674293e+05 -2.066073e+05 -5.000000e+04
-3.494471e+05 -2.292202e+05 -2.526698e+04
-3.497009e+05 -1.977915e+05 -2.539897e+04
1.731007e+05 3.680556e+05 0.000000e+00
1.913043e+05 4.000000e+05 0.000000e+00
4.000000e+05 2.956522e+05 0.000000e+00
4.000000e+05 2.782599e+05 -2.232106e+04
3.700232e+05 2.952130e+05 -2.459328e+04
-2.177434e+05 -3.321524e+05 -5.000000e+04
-2.166738e+05 -3.000000e+05 -2.767207e+04
-2.002275e+05 -3.215730e+05 -2.585451e+04
-1.985707e+05 -3.482959e+05 -2.510962e+04
-2.179099e+05 -3.324288e+05 0.000000e+00
-2.000000e+05 -3.000000e+05 0.000000e+00
-4.000000e+05 -1.739130e+04 -5.000000e+04
-4.000000e+05 1.362271e+00 -2.232106e+04
-4.000000e+05 -3.478139e+04 -2.232106e+04
-3.764375e+05 -1.615686e+04 -2.441389e+04
-1.172644e+05 3.321057e+05 -5.000000e+04
-1.165333e+05 3.000000e+05 -2.235380e+04
-1.172626e+05 3.323723e+05 0.000000e+00
-1.351151e+05 3.242796e+05 -2.432698e+04
-1.000000e+05 3.000000e+05 0.000000e+00
3.000000e+05 -1.154172e+05 -2.769106e+04
3.000000e+05 -9.891990e+04 0.000000e+00
3.323674e+05 -1.164140e+05 0.000000e+00
3.494970e+05 -9.661460e+04 -2.478315e+04
3.320115e+05 -1.138445e+05 -5.000000e+04
3.000000e+05 -9.578803e+04 -5.000000e+04
-3.683842e+05 -3.117444e+05 -5.000000e+04
-3.704229e+05 -3.502942e+05 -5.000000e+04
-3.000000e+05 -1.676695e+04 -5.000000e+04
-3.000000e+05 -3.162526e+04 0.000000e+00
-3.000000e+05 1.537267e+03 0.000000e+00
-3.215156e+05 -1.436666e+04 -2.547447e+04
-2.627419e+05 -3.499829e+05 -2.513924e+04
-3.324526e+05 -2.845988e+05 0.000000e+00
-3.280582e+05 -3.160567e+05 0.000000e+00
-2.333333e+05 -3.000000e+05 0.000000e+00
-1.731007e+05 -3.680556e+05 0.000000e+00
-1.545447e+05 -3.761882e+05 -2.496605e+04
-1.738957e+05 -4.000000e+05 -2.758994e+04
-1.892592e+05 -3.758330e+05 -2.503546e+04
-2.077253e+05 -3.680332e+05 0.000000e+00
-2.238681e+05 -3.761511e+05 -2.500739e+04
-1.913043e+05 -4.000000e+05 -5.000000e+04
-2.086560e+05 -4.000000e+05 -2.240978e+04
-1.730589e+05 -3.677722e+05 -5.000000e+04
6.957979e+04 4.000000e+05 -2.232138e+04
5.217391e+04 4.000000e+05 0.000000e+00
3.478536e+04 4.000000e+05 -2.232108e+04
5.076709e+04 3.763881e+05 -2.432357e+04
5.217391e+04 4.000000e+05 -5.000000e+04
1.674987e+04 3.323474e+05 0.000000e+00
3.500461e+04 3.242904e+05 -2.486949e+04
3.461320e+04 3.681000e+05 0.000000e+00
4.999984e+04 3.000000e+05 -2.235747e+04
3.333333e+04 3.000000e+05 0.000000e+00
1.624297e+04 3.760050e+05 -2.438535e+04
-3.680268e+05 2.424010e+05 0.000000e+00
-3.501061e+05 2.289790e+05 -2.510660e+04
-3.680500e+05 2.077851e+05 0.000000e+00
-3.762767e+05 2.231686e+05 -2.569080e+04
6.044606e+04 3.500124e+05 -2.491520e+04
-1.731195e+05 3.680519e+05 0.000000e+00
-1.545405e+05 3.762789e+05 -2.429555e+04
-1.611352e+05 3.500581e+05 -2.482426e+04
-1.910310e+05 3.748826e+05 -2.441742e+04
-1.384382e+05 3.677954e+05 -5.000000e+04
-4.000000e+05 2.260870e+05 0.000000e+00
-4.000000e+05 2.086964e+05 -2.767894e+04
-1.565217e+05 4.000000e+05 -5.000000e+04
-1.391303e+05 4.000000e+05 -2.231930e+04
-1.739120e+05 4.000000e+05 -2.232105e+04
-2.883046e+05 -3.320639e+05 0.000000e+00
-3.323717e+05 -1.156481e+05 0.000000e+00
-3.489067e+05 -1.010526e+05 -2.439261e+04
-3.250615e+05 -9.110468e+04 -2.328549e+04
-3.294786e+05 -1.230635e+05 -2.464286e+04
[...]
CELL_DATA 17893
SCALARS total_strain double 6
LOOKUP_TABLE default
1.822183e-08 3.992761e-09 -3.840728e-09 -9.590101e-09 4.805917e-09 -2.300525e-09
8.339445e-09 6.627856e-09 -5.464926e-09 -3.549591e-09 4.002367e-09 -9.942742e-10
-2.718363e-09 1.328364e-08 -6.456486e-09 -2.114718e-09 4.655740e-09 -5.172992e-09
1.935460e-09 1.169089e-08 -7.074426e-09 -1.002257e-08 2.081369e-09 -4.938245e-09
-1.468385e-09 1.334148e-08 -5.888866e-09 -3.597802e-09 6.074172e-09 -6.068758e-09
-7.064997e-09 -4.741953e-09 6.175567e-10 3.285538e-09 -1.879955e-09 6.807512e-10
-6.309187e-09 -6.026744e-09 2.593356e-09 1.653557e-09 -8.892986e-10 -3.637901e-10
-6.110447e-09 -8.130030e-09 1.802551e-09 2.595021e-09 -2.210237e-09 7.237566e-11
-8.776836e-09 -1.964393e-09 1.423389e-09 2.630407e-09 6.522904e-10 -2.172721e-10
-8.400830e-09 -1.127410e-09 1.247566e-09 1.083666e-09 -9.241059e-10 -9.813916e-11
-6.254194e-09 -5.690419e-09 2.171396e-09 1.444595e-09 -5.698557e-10 -3.292711e-10
-8.569249e-09 -1.740657e-09 1.638916e-09 1.426602e-09 -1.054243e-09 -1.242879e-10
3.052665e-08 6.761166e-10 -6.100015e-09 -7.433028e-09 1.849190e-09 -1.411463e-09
1.617076e-08 8.235245e-09 -6.718127e-09 -1.192396e-08 -1.466059e-10 -9.186008e-11
1.863191e-08 3.772068e-09 -5.186772e-09 -9.432014e-09 5.416632e-09 -2.313723e-09
1.744375e-08 -3.084817e-10 -4.688738e-09 3.642846e-12 3.021298e-09 7.322487e-10
1.837205e-08 5.027168e-09 -5.410967e-09 -3.519592e-09 2.102920e-09 2.446499e-09
1.729508e-08 1.314364e-09 -5.508460e-09 3.651450e-10 3.300650e-09 2.642712e-10
-1.394261e-08 1.442704e-08 -6.741363e-09 5.312218e-09 7.544719e-09 -4.592558e-09
-1.853874e-08 1.708692e-08 -6.014318e-09 6.079076e-09 6.148211e-09 -4.822911e-09
-1.122066e-08 1.254583e-08 -4.254253e-09 1.821320e-09 3.382022e-09 -7.430478e-10
-1.654534e-08 1.039277e-08 -1.219648e-09 4.654131e-09 5.314411e-09 -1.809434e-09
-1.709637e-08 1.423020e-08 -4.463051e-09 6.109990e-09 6.931042e-09 -3.235289e-09
-1.810966e-08 1.328713e-08 -4.593814e-09 9.536614e-09 6.811496e-09 -3.588372e-09
9.707223e-09 -4.595251e-09 -1.198352e-09 -2.822103e-09 -3.789423e-10 -7.683134e-10
-7.522427e-09 4.742430e-09 1.098244e-09 -4.809886e-10 -2.048805e-12 -1.239684e-10
-7.718214e-09 4.624864e-09 1.008446e-09 -8.013297e-10 -1.165212e-10 -3.147734e-10
-7.267736e-09 4.769417e-09 8.650689e-10 -9.805694e-10 -1.621763e-10 -3.378441e-10
-7.832488e-09 4.924065e-09 9.732988e-10 -7.125972e-10 -9.436274e-11 -4.195210e-10
-7.576690e-09 4.654208e-09 1.046810e-09 -1.027737e-09 -1.552807e-10 1.278229e-10
-7.844189e-09 4.615501e-09 1.065665e-09 -1.259703e-09 -1.815490e-10 -2.325491e-10
-3.954812e-09 2.630009e-09 5.341301e-10 6.719629e-10 1.331510e-10 -4.480214e-10
-4.889595e-09 2.791141e-09 4.952949e-10 6.680596e-10 1.169851e-10 -8.450662e-11
-4.001258e-09 2.382827e-09 3.172955e-10 4.056196e-10 -1.041362e-12 -1.631162e-11
3.767788e-08 -1.366043e-08 -6.860176e-08 -1.337796e-08 2.947883e-08 7.059250e-09
-5.086953e-11 -2.517071e-08 7.140089e-09 3.186859e-09 2.960922e-11 -2.854524e-10
4.040714e-10 -2.400602e-08 7.251044e-09 1.193438e-09 -6.029026e-10 3.555314e-10
-2.141212e-10 -2.616858e-08 7.521383e-09 1.932645e-09 -1.974941e-10 2.113238e-10
1.692817e-09 -2.645910e-08 7.507053e-09 1.288702e-09 -2.681870e-10 1.524949e-10
1.023076e-08 -5.596743e-09 -1.372133e-09 -2.837892e-10 -5.883402e-11 5.205747e-11
9.801884e-09 -5.644824e-09 -1.383039e-09 1.693172e-11 -4.177104e-11 7.316126e-11
1.661884e-08 -3.625725e-08 -8.749053e-09 -9.119391e-09 3.102008e-09 1.167222e-10
1.008163e-08 -5.576576e-09 -1.345617e-09 2.863820e-10 3.710371e-11 5.496936e-12
9.837229e-09 -5.599979e-09 -1.331665e-09 3.871929e-11 2.688230e-11 4.911205e-11
9.907357e-09 -5.719827e-09 -1.362343e-09 -5.668055e-11 -2.905608e-11 3.743095e-11
-1.692023e-08 8.269428e-09 -7.398659e-10 -1.847498e-09 4.107799e-10 -2.565674e-10
6.600551e-09 -3.740565e-09 -1.035331e-09 -1.386603e-09 -1.512437e-10 -6.975320e-11
6.341104e-09 -3.100410e-09 -8.263843e-10 -1.614051e-09 -2.390041e-10 -1.895590e-10
5.678757e-09 -3.156646e-09 -9.073304e-10 -1.948540e-09 -3.597955e-10 5.570865e-10
6.681619e-09 -3.151141e-09 -9.844949e-10 -1.696149e-09 -5.096221e-10 1.525782e-10
6.453044e-09 -3.809637e-09 -1.142147e-09 -1.481538e-09 -3.238576e-10 -1.535639e-10
8.976484e-09 -2.993173e-08 5.748836e-09 -3.756636e-09 -1.246178e-09 -4.708485e-10
8.912049e-09 -3.098387e-08 5.805947e-09 -3.383450e-09 2.578561e-10 -6.986745e-10
6.093176e-09 -2.663986e-08 5.795715e-09 -4.605085e-09 -2.407268e-10 -7.796216e-10
8.906986e-09 -3.081146e-08 6.215446e-09 -3.334675e-09 6.192384e-10 -5.154255e-10
5.951710e-09 -2.402093e-08 5.007596e-09 -4.079400e-09 9.592396e-10 -6.645499e-10
6.254678e-09 -2.845390e-08 5.620985e-09 -4.909986e-09 -1.151683e-10 -2.328376e-10
6.571750e-09 -2.701041e-08 5.938564e-09 -2.533500e-09 -4.623855e-11 -1.254440e-09
1.890435e-08 -3.063887e-08 -1.208940e-08 -1.042618e-08 -6.404862e-09 -4.537169e-10
1.560510e-08 -3.515646e-08 -6.152365e-09 -5.151041e-09 -2.826434e-09 -6.162444e-10
1.185949e-08 -3.019351e-08 -8.325594e-09 -6.832809e-09 2.432337e-10 -3.774114e-10
1.557401e-08 -3.675964e-08 -4.131414e-09 -9.079905e-09 -5.210513e-09 -2.788971e-09
1.267648e-08 -3.170054e-08 -4.971198e-09 -5.609894e-09 -4.570505e-09 -1.456031e-10
1.201937e-08 -3.195503e-08 -6.659771e-09 -7.178967e-09 -3.296902e-09 -1.875071e-09
-6.049828e-09 -6.581010e-09 1.481882e-09 1.240744e-09 -2.887488e-10 -1.707238e-10
-5.898534e-09 -6.406973e-09 1.531982e-09 1.492762e-09 -6.219327e-10 -2.988348e-10
-6.592129e-09 -6.122762e-09 2.027954e-09 -3.837636e-10 4.571072e-10 4.074963e-11
5.529798e-08 -2.172662e-08 -2.063727e-11 -5.196313e-10 -1.762717e-10 7.235933e-09
-7.807335e-09 -6.714593e-09 2.644107e-09 -7.687993e-09 -3.484360e-09 -1.279363e-09
-1.013707e-08 -2.082954e-09 8.485412e-10 -6.834283e-09 -2.177658e-09 -5.967136e-10
-1.324855e-08 -4.526830e-09 1.044092e-09 -4.022191e-09 -2.117777e-09 -1.365574e-10
-1.237101e-08 3.215999e-10 2.172386e-09 -4.742103e-09 -1.975438e-09 -1.280214e-09
-1.250302e-08 -1.979013e-09 1.189363e-09 -5.906063e-09 -2.499630e-09 -8.271117e-10
2.331632e-08 8.578823e-08 -1.438710e-07 -3.755184e-10 3.144593e-08 -1.770810e-09
-1.134027e-08 -7.143530e-09 2.606306e-09 -5.614549e-09 -3.626754e-09 -3.431415e-10
-9.063044e-09 -1.881759e-09 2.216898e-09 2.115441e-10 -1.237422e-09 -2.397128e-10
-1.878828e-08 1.388205e-08 -4.538420e-09 9.605736e-09 6.596194e-09 -3.489027e-09
-1.556535e-08 1.424813e-08 -4.365998e-09 8.041973e-09 6.848721e-09 -4.489402e-09
-1.567914e-08 4.446584e-09 -3.240284e-09 1.323875e-08 2.075658e-09 -1.369248e-09
-1.739294e-08 1.451447e-08 -5.355861e-09 9.444152e-09 3.916505e-09 -2.421699e-09
-1.972971e-08 1.167348e-08 -6.180645e-09 1.212742e-08 5.100559e-09 -3.385422e-09
-1.631836e-08 1.137934e-08 -6.231425e-09 1.375149e-08 4.976394e-09 -2.842096e-09
-1.500399e-08 1.222458e-08 -5.956224e-09 1.195669e-08 5.726509e-09 -3.447503e-09
1.615202e-08 -4.343337e-08 -2.417025e-09 -1.109882e-08 -1.409664e-08 -3.165077e-09
1.340652e-08 -4.531903e-08 1.194805e-09 -1.337619e-08 -1.350561e-08 -2.314180e-09
1.156840e-08 -3.247149e-08 3.484590e-11 -1.770283e-08 -1.316939e-08 -4.389877e-09
6.455650e-09 -3.146902e-08 7.398029e-10 -1.360374e-08 -1.227669e-08 -2.142701e-09
1.435762e-08 -3.335269e-08 -1.896751e-09 -1.785720e-08 -1.173090e-08 -5.221086e-09
1.120058e-08 -4.419359e-08 -2.344791e-09 -1.978568e-08 -2.008321e-08 -5.680527e-09
1.456356e-08 -4.078146e-08 5.599134e-09 1.242678e-10 2.126842e-09 -1.236679e-10
1.052335e-08 -6.204924e-09 -1.484068e-09 4.024051e-10 1.060448e-10 1.411704e-11
1.137089e-08 -6.204924e-09 -1.554012e-09 3.955800e-10 9.810738e-11 4.768677e-10
1.033485e-08 -6.023106e-09 -1.321764e-09 -5.333013e-10 -9.107845e-11 1.615599e-10
1.068115e-08 -6.056804e-09 -1.318495e-09 -4.733878e-10 -7.901002e-11 1.987332e-10
1.088083e-08 -5.898718e-09 -1.339734e-09 -1.172032e-09 -1.398676e-10 1.085309e-10
1.072064e-08 -6.247782e-09 -1.484626e-09 -4.889251e-10 9.931656e-11 2.092899e-10
1.032079e-08 -6.075108e-09 -1.394957e-09 -1.113483e-09 -1.401808e-10 4.046906e-10
-6.287946e-09 2.438438e-09 1.350405e-09 1.256386e-09 3.194978e-10 3.062488e-10
-9.086626e-09 1.305581e-08 -5.033524e-09 -3.959373e-09 -9.269137e-09 -6.737212e-09
-1.426503e-08 1.664369e-08 -4.344027e-09 -5.344757e-09 -7.655230e-09 -7.816882e-09
-1.443038e-08 1.949719e-08 -8.308680e-09 -4.577418e-09 -9.608766e-09 -9.746050e-09
-5.435917e-09 4.271266e-09 5.638201e-10 -9.385115e-10 -2.684213e-10 -1.370659e-10
-5.475989e-09 4.272028e-09 5.896921e-10 -9.444703e-10 -1.603426e-10 1.692304e-10
-5.434616e-09 4.113721e-09 5.090333e-10 -9.371650e-10 -1.665494e-10 -1.417526e-10
-5.462944e-09 4.085331e-09 4.391816e-10 -1.457913e-09 -3.485614e-10 -1.119147e-10
-4.394432e-09 3.638724e-09 3.030420e-10 -1.271257e-09 -1.169187e-10 1.633558e-10
-5.449090e-09 3.787925e-09 5.091938e-10 -1.353894e-09 -1.799660e-10 -1.781356e-10
-4.638624e-09 3.662427e-09 2.164799e-10 -1.195947e-09 -1.857896e-10 3.168210e-10
-5.450213e-09 3.638443e-09 2.534239e-10 -1.339301e-09 -3.769060e-10 -1.599678e-10
-1.573285e-08 1.084790e-08 -3.845958e-09 5.407938e-09 4.165045e-09 -1.683170e-09
3.192237e-08 6.590571e-08 -1.520671e-07 7.187082e-09 7.282721e-08 -8.303314e-09
1.333738e-08 -3.841971e-08 6.500946e-09 4.029192e-10 1.995674e-10 -5.470424e-11
1.240388e-08 -3.565421e-08 6.824346e-09 -9.253205e-10 3.691433e-10 -2.790388e-10
1.265666e-08 -3.676885e-08 6.339912e-09 -5.892183e-10 -3.274874e-10 -2.346783e-10
1.272603e-08 -3.717904e-08 6.354759e-09 -9.332770e-10 -1.062701e-10 -2.682619e-10
-6.807080e-09 2.629678e-09 1.487219e-09 1.409051e-09 -3.446457e-10 -4.179619e-10
1.253672e-08 -3.840059e-08 6.821409e-09 -9.051670e-10 2.576668e-10 -2.636871e-10
1.310191e-08 -3.830594e-08 6.832495e-09 2.563489e-10 3.953410e-10 -2.593250e-10
-1.653740e-08 6.519580e-09 8.453713e-10 6.341379e-09 2.759804e-09 -1.388674e-09
-1.863429e-08 1.325580e-08 -1.781731e-09 1.053843e-08 5.494984e-09 -4.290226e-09
-1.776464e-08 5.904663e-09 -1.799681e-09 1.087879e-08 4.720265e-09 -1.376329e-09
-1.861582e-08 1.208940e-08 -4.510304e-09 1.023094e-08 8.213029e-09 -4.814786e-09
-1.595999e-08 1.025257e-08 -2.960367e-09 4.977564e-09 4.489238e-09 -1.537216e-09
-1.472274e-08 7.689138e-10 1.839869e-09 -1.941031e-09 -1.171276e-09 -2.426836e-10
4.283636e-08 -6.014973e-09 -8.290129e-08 -3.849396e-09 3.690597e-08 2.808935e-09
-1.299976e-08 -1.750813e-10 1.432230e-09 -1.875343e-09 -2.614272e-09 -5.472520e-10
6.512879e-10 -2.706046e-08 5.173440e-09 8.080446e-09 1.829968e-09 5.499805e-10
-1.590007e-08 1.145118e-09 2.955595e-09 -1.867319e-09 -5.262746e-10 -5.263878e-10
-1.548241e-08 8.286403e-10 2.800848e-09 -7.200267e-10 -1.255771e-10 -7.086767e-10
2.284925e-09 -2.376869e-08 2.244053e-09 4.419376e-09 -2.510709e-09 1.649794e-10
1.985708e-09 -2.266700e-08 5.087840e-09 3.070816e-09 -2.354391e-09 -3.778884e-10
-6.799068e-09 3.085316e-09 1.254806e-09 1.673010e-09 4.516051e-10 -4.198546e-10
4.028405e-09 -2.700029e-08 5.599705e-09 7.709331e-09 -1.804166e-09 5.062087e-10
5.232893e-09 -2.595158e-08 3.128329e-09 8.750282e-10 -2.567708e-10 3.590438e-10
3.841950e-09 -2.655446e-08 1.191491e-09 8.026761e-09 -4.369189e-09 1.491536e-09
-1.391464e-08 1.567757e-08 -3.368277e-09 9.943116e-10 4.445241e-09 -2.448902e-09
-1.705074e-08 1.172395e-08 -5.525245e-10 8.248927e-09 5.725022e-09 -2.873028e-09
-1.640928e-08 1.174755e-08 2.026468e-10 4.590276e-09 3.740712e-09 -2.002442e-09
-1.731632e-08 9.734735e-09 7.911205e-10 9.029126e-09 5.442658e-09 -2.685136e-09
-7.391332e-09 1.436793e-08 -2.516294e-09 -8.203135e-10 3.460565e-09 -1.927027e-09
-1.670413e-08 1.479187e-08 -7.940078e-10 4.671315e-09 5.298755e-09 -4.143816e-09
-1.066167e-08 1.747536e-08 -5.693334e-09 -3.118892e-09 5.852556e-09 -3.953630e-09
-1.676448e-08 1.479101e-08 -3.427856e-09 4.697213e-09 5.250644e-09 -2.926018e-09
-9.908266e-09 1.952937e-08 -7.545332e-09 -2.720617e-10 6.910980e-09 -5.253099e-09
-1.175051e-08 1.577088e-08 -4.787065e-09 5.350796e-10 4.627523e-09 -2.269427e-09
-6.999591e-10 1.481608e-08 -5.923882e-09 -5.591363e-09 3.132519e-09 -1.676309e-09
-1.696042e-08 3.503685e-09 2.227934e-09 1.035543e-08 5.851038e-09 -1.918638e-09
-1.768303e-08 6.866998e-09 -1.082053e-09 6.867635e-09 4.940481e-09 -1.363347e-09
-1.732094e-08 1.039134e-08 -1.263946e-09 9.176442e-09 5.399093e-09 -1.590077e-09
-1.688863e-08 1.164671e-08 -1.231749e-09 4.123317e-09 4.723955e-09 -1.153536e-09
-1.488137e-08 1.405895e-08 -4.465297e-09 6.513600e-09 6.129496e-09 -4.770971e-09
-1.894928e-08 1.191370e-08 1.523596e-09 9.633393e-09 4.171052e-09 -2.906239e-09
-1.698856e-08 5.356183e-09 -1.880065e-10 1.025525e-08 6.251792e-09 -2.602046e-09
-1.775886e-08 3.757029e-09 2.079639e-09 1.124341e-08 4.717328e-09 -1.373379e-09
-7.555951e-09 5.082884e-09 8.872756e-10 -1.480238e-10 -2.928680e-11 -4.301204e-11
-7.153940e-09 5.003724e-09 6.876992e-10 -2.751861e-10 -4.810308e-11 3.236411e-11
-7.353062e-09 4.816955e-09 7.588561e-10 -5.596226e-10 -1.344125e-11 2.127365e-11
-7.200477e-09 4.965514e-09 7.598211e-10 -2.991269e-10 -4.882361e-11 -1.549572e-11
-7.215203e-09 4.991422e-09 8.368608e-10 -4.136813e-10 -4.175743e-11 -1.355613e-10
-7.440760e-09 1.507468e-09 2.051453e-09 -6.725516e-10 3.848619e-10 -4.174990e-11
-7.431916e-09 5.085543e-09 7.653824e-10 -8.383960e-11 1.080513e-11 -9.275056e-11
-3.880666e-09 2.327988e-09 4.160472e-10 1.815050e-10 1.978366e-10 1.677407e-10
-3.941096e-09 2.024353e-09 4.881660e-10 7.460463e-10 3.809752e-11 -1.031228e-10
-3.490402e-09 2.118838e-09 3.325891e-10 3.220085e-10 3.346116e-10 2.198443e-11
2.431267e-08 1.933728e-08 -8.925328e-08 -1.196103e-08 1.414087e-08 2.187714e-09
-3.300133e-09 2.139588e-09 3.283591e-10 4.877947e-10 3.391025e-10 -1.895101e-11
-3.399778e-09 2.383145e-09 3.102425e-10 4.256547e-10 -2.778444e-12 -2.104003e-11
-3.789735e-09 2.377888e-09 4.043508e-10 2.296767e-10 4.160672e-11 -1.671157e-10
-7.261658e-09 -4.713403e-09 2.257883e-09 3.279369e-09 -1.384899e-09 -4.079714e-11
-6.510555e-09 -6.787197e-09 2.559999e-09 5.604468e-09 -2.501979e-09 7.316289e-10
-6.908132e-09 -5.460159e-09 2.071836e-09 3.096410e-09 -4.037482e-09 2.224737e-10
8.153281e-09 -3.966452e-09 -1.189127e-09 -1.528392e-09 -2.581428e-10 1.822440e-10
7.568472e-09 -3.556468e-09 -1.042228e-09 -2.873753e-09 -2.449960e-10 3.429652e-10
6.140646e-09 -3.604995e-09 -1.033885e-09 -2.578783e-09 -1.496409e-10 3.068079e-11
8.263018e-09 -4.457426e-09 -1.199824e-09 -1.516560e-09 -2.928091e-11 2.794931e-10
1.103401e-08 -3.505556e-08 6.251604e-09 -2.245079e-09 -3.285671e-10 -2.172973e-10
1.086271e-08 -3.532980e-08 6.217443e-09 -1.600281e-09 7.722948e-10 -3.773532e-10
1.218901e-08 -3.514260e-08 6.557633e-09 -8.235259e-10 5.004173e-10 -5.243027e-10
1.087035e-08 -3.147952e-08 6.829187e-09 -1.787559e-09 -7.629046e-10 -3.019367e-10
1.216028e-08 -3.653003e-08 6.803200e-09 -6.591771e-10 -1.462504e-10 -3.850068e-10
1.106191e-08 -3.513221e-08 6.698845e-09 -4.583931e-11 2.458709e-10 -3.936889e-10
-7.250089e-09 3.458991e-09 1.112792e-09 4.709586e-10 2.370548e-11 -1.129967e-10
-7.429255e-09 3.587333e-09 1.233218e-09 2.032838e-10 -1.426326e-11 -5.696221e-11
-1.706361e-08 1.388032e-08 -3.872983e-09 -2.810124e-09 -5.074893e-09 -1.713898e-09
6.253793e-08 -8.556322e-09 6.104845e-09 2.729363e-08 7.744889e-09 1.782479e-08
-1.585814e-08 1.201342e-08 -4.234369e-09 -3.941697e-09 -4.446192e-09 -1.086530e-09
-7.440759e-09 1.724914e-10 2.135399e-09 -1.143535e-09 -2.108307e-10 -4.929855e-10
-1.546844e-08 1.056885e-08 -5.935255e-09 -6.178971e-09 -6.769154e-09 -3.474474e-09
-1.511706e-08 6.801623e-09 -6.221703e-09 -6.436615e-09 -5.468286e-09 -3.140440e-09
1.120427e-08 -3.631936e-08 7.574248e-09 2.020049e-09 4.142342e-10 2.368366e-10
1.230485e-08 -3.843124e-08 7.085374e-09 2.667337e-09 1.877130e-10 6.404458e-11
9.646747e-09 -3.542638e-08 7.207579e-09 4.339575e-09 -4.794896e-10 3.171290e-10
3.985727e-08 -7.074434e-09 3.051107e-10 8.205757e-09 -1.640223e-09 7.122706e-09
1.231944e-08 -3.696163e-08 6.912424e-09 2.504589e-09 1.001264e-09 2.020628e-11
-2.354599e-09 1.957524e-09 2.043425e-10 1.090273e-09 2.521352e-10 -2.685577e-11
-3.588612e-09 2.018500e-09 4.513652e-10 1.598687e-09 1.146946e-10 4.567635e-11
-8.310094e-09 1.889507e-09 1.488028e-09 -1.007227e-09 -1.306952e-10 1.430469e-10
-3.641687e-09 2.400869e-09 4.784217e-10 6.249889e-10 1.339255e-10 -1.943141e-10
-3.305368e-09 2.199749e-09 3.867884e-10 5.445945e-10 7.964673e-11 -1.405875e-11
-1.676982e-08 -1.648675e-09 1.958011e-09 8.631191e-09 4.399652e-09 -1.441380e-09
-1.548442e-08 6.025228e-09 -1.706600e-09 1.182360e-08 4.603568e-09 -1.971735e-09
-1.439065e-08 4.390959e-10 2.626383e-09 8.012146e-09 3.282532e-09 -4.600103e-10
-1.428646e-08 -5.442855e-09 3.282559e-09 8.097909e-09 6.339438e-10 -1.156609e-09
-1.513795e-08 -3.603265e-09 1.322731e-09 1.113760e-08 3.769442e-09 -1.041003e-09
-1.705015e-08 3.335196e-09 -8.216920e-10 7.227368e-09 3.896360e-09 -9.969605e-10
-1.654261e-08 1.814000e-09 -7.096492e-10 7.265345e-09 3.471587e-09 -6.438876e-10
-5.598555e-09 3.016435e-09 7.389143e-10 1.200105e-09 1.726848e-10 -1.948084e-10
-5.745925e-09 3.047635e-09 9.788494e-10 1.302839e-09 3.156028e-10 -1.730013e-10
-5.468412e-09 3.157348e-09 7.545318e-10 8.133298e-10 8.599399e-11 -1.554739e-10
-5.921227e-09 3.095843e-09 7.658758e-10 6.440507e-10 3.204792e-11 -2.762341e-10
-5.134989e-09 2.739819e-09 7.269914e-10 1.094054e-09 1.016701e-10 -7.960393e-11
-5.235021e-09 2.969227e-09 7.506151e-10 1.273877e-09 -1.211387e-11 -7.987313e-11
-6.088486e-09 3.282599e-09 7.610448e-10 1.030250e-09 8.608225e-11 -7.939034e-11
-6.086992e-09 3.258517e-09 7.596683e-10 6.009370e-10 8.003331e-11 -2.202896e-10
-6.252920e-09 -3.611131e-09 2.928180e-09 -5.714731e-10 2.401858e-12 -7.366843e-10
-6.467632e-09 -3.067920e-09 2.962935e-09 -1.099756e-09 2.610875e-10 -8.398293e-10
-7.495072e-09 -4.459304e-10 2.348287e-09 -8.531649e-10 -2.383388e-10 -5.166154e-10
-7.224999e-09 -1.503384e-10 2.510205e-09 -6.099297e-10 -8.659312e-11 -4.218561e-10
-6.889188e-09 1.908318e-11 2.429321e-09 -8.892069e-10 2.409477e-10 -6.635443e-10
-4.044782e-09 -1.597414e-08 6.283972e-09 7.642776e-09 4.300294e-10 5.327458e-10
-7.380372e-09 4.111913e-09 9.740457e-10 7.142065e-11 5.670442e-11 -2.929912e-11
-4.085955e-09 -1.527947e-08 6.156551e-09 7.506287e-09 7.121677e-10 6.055858e-10
-6.256743e-09 -1.701303e-08 6.226734e-09 5.115137e-09 3.328180e-10 1.392969e-10
-3.904520e-09 -1.789442e-08 6.519557e-09 5.219683e-09 -7.264011e-10 2.482641e-11
-4.562441e-09 -1.740998e-08 6.507693e-09 4.888957e-09 2.443568e-10 6.772161e-10
2.194777e-08 1.233312e-08 -6.900605e-08 -1.576398e-08 -1.503970e-08 -1.327555e-09
2.627449e-08 6.735076e-09 -7.319982e-08 -1.110759e-08 -3.324937e-08 -1.342385e-10
1.628662e-08 4.215795e-08 -8.194720e-08 -1.480469e-08 -1.082279e-08 -2.969677e-09
1.625818e-08 3.558096e-08 -6.561285e-08 -1.161425e-08 -1.969799e-08 -5.380021e-09
1.035670e-08 -3.250080e-08 1.796465e-10 -3.908320e-09 -2.434537e-09 -4.247020e-10
9.934582e-09 -3.452966e-08 -1.111038e-09 -5.717959e-09 -6.534159e-09 -1.194169e-09
1.034467e-08 -3.645925e-08 7.300893e-10 -4.195656e-09 -2.265940e-09 -4.826199e-10
9.727890e-09 -2.989282e-08 1.056679e-10 -2.947843e-09 -2.201511e-09 -6.440780e-10
1.333200e-08 -3.798207e-08 6.137930e-10 -2.767677e-09 -3.043878e-09 -8.559524e-10
9.554509e-09 -2.280664e-08 -1.383593e-08 -1.231288e-08 -4.924678e-09 -2.437261e-09
1.517311e-08 -1.988745e-08 -2.104391e-08 -1.614819e-08 -2.803855e-09 -2.723678e-09
1.522264e-08 -2.050750e-08 -2.002895e-08 -1.652036e-08 -1.320687e-08 -2.046029e-09
1.886416e-08 -3.441344e-08 -1.887232e-08 -1.081616e-08 -1.270825e-08 -1.086352e-09
1.736321e-08 -2.319233e-08 -2.092203e-08 -1.332832e-08 -1.030728e-08 -1.848314e-09
-7.198870e-09 3.374877e-09 1.176802e-09 4.398850e-10 1.271299e-10 -2.726388e-10
-6.907741e-09 2.936785e-09 1.179789e-09 6.928680e-10 9.912537e-11 -1.794735e-10
3.674404e-09 3.165822e-09 -4.102701e-08 -2.570153e-08 1.728072e-08 1.156512e-08
5.081460e-09 -2.694180e-09 -8.326504e-10 -7.747250e-10 -8.713386e-11 -6.922662e-11
1.572284e-08 -6.415209e-09 -3.901218e-08 -2.404395e-08 1.573468e-08 6.547637e-09
2.510239e-08 1.581709e-08 -7.545608e-08 -1.524899e-08 1.348400e-08 8.905011e-09