# vtk DataFile Version 2.0
Simplicial Mesh Example
ASCII
DATASET UNSTRUCTURED_GRID
POINTS 5747 double
3.320296e+05 -1.479713e+05 -5.000000e+04
3.231117e+05 -1.694976e+05 -2.432604e+04
3.474531e+05 -1.606001e+05 -2.508933e+04
3.227386e+05 -1.447634e+05 -2.425528e+04
3.000000e+05 -1.659466e+05 0.000000e+00
3.323841e+05 -1.500853e+05 0.000000e+00
3.000000e+05 -1.298234e+05 -5.000000e+04
3.211980e+05 -1.225368e+05 -2.426738e+04
3.000000e+05 -1.488492e+05 -2.774542e+04
3.000000e+05 -1.638587e+05 -5.000000e+04
-3.410447e+05 -3.313729e+05 -5.000000e+04
-3.562308e+05 -3.573304e+05 -2.601066e+04
-3.400641e+05 -3.171355e+05 -2.518245e+04
-3.709216e+05 -3.294213e+05 -2.455579e+04
8.320003e+04 -3.000000e+05 -2.235380e+04
1.000000e+05 -3.000000e+05 0.000000e+00
8.376766e+04 -3.323560e+05 0.000000e+00
1.021017e+05 -3.230139e+05 -2.393989e+04
9.189646e+04 -3.476152e+05 -2.483836e+04
7.389417e+04 -3.240317e+05 -2.539793e+04
8.376391e+04 -3.320935e+05 -5.000000e+04
1.000000e+05 -3.000000e+05 -5.000000e+04
6.666667e+04 -3.000000e+05 -5.000000e+04
4.944468e+04 -3.212857e+05 -2.165974e+04
-3.000000e+05 -2.284991e+05 -5.000000e+04
-3.319474e+05 -2.124896e+05 -5.000000e+04
-3.213498e+05 -2.362895e+05 -2.757616e+04
-3.182279e+05 -2.138175e+05 -3.187491e+04
3.680760e+05 -6.909438e+04 0.000000e+00
3.760615e+05 -8.538341e+04 -2.424849e+04
3.481927e+05 -6.095077e+04 -2.496244e+04
3.758237e+05 -5.045542e+04 -2.419632e+04
-3.000000e+05 -2.326501e+05 0.000000e+00
-3.000000e+05 -2.125115e+05 -2.265069e+04
-3.000000e+05 -1.989752e+05 0.000000e+00
-3.222890e+05 -1.925429e+05 -2.782913e+04
-3.324295e+05 -2.170264e+05 0.000000e+00
-2.490803e+05 -3.000000e+05 -2.221961e+04
-2.515393e+05 -3.324613e+05 0.000000e+00
-2.666667e+05 -3.000000e+05 0.000000e+00
-2.736161e+05 -3.250545e+05 -2.495123e+04
3.676956e+05 -6.866168e+04 -5.000000e+04
4.000000e+05 -8.695652e+04 -5.000000e+04
4.000000e+05 -5.217391e+04 -5.000000e+04
4.000000e+05 -6.957979e+04 -2.232138e+04
-2.333333e+05 -3.000000e+05 -5.000000e+04
-2.666667e+05 -3.000000e+05 -5.000000e+04
-2.512538e+05 -3.321783e+05 -5.000000e+04
-2.508099e+05 -3.235453e+05 -2.887646e+04
-2.289455e+05 -3.238420e+05 -2.574418e+04
-2.333712e+05 -3.500457e+05 -2.527316e+04
-1.499969e+05 -3.000000e+05 -2.764283e+04
-1.666667e+05 -3.000000e+05 0.000000e+00
-1.707207e+05 -3.230060e+05 -2.516231e+04
-1.484539e+05 -3.229549e+05 -2.532466e+04
-1.507909e+05 -3.323848e+05 0.000000e+00
-1.623180e+05 -3.500580e+05 -2.480559e+04
-1.507405e+05 -3.321164e+05 -5.000000e+04
-1.195254e+05 -3.221356e+05 -2.186727e+04
-1.333333e+05 -3.000000e+05 -5.000000e+04
-1.666667e+05 -3.000000e+05 -5.000000e+04
-1.043477e+05 4.000000e+05 -2.232281e+04
-1.038755e+05 3.680862e+05 0.000000e+00
-1.217391e+05 4.000000e+05 0.000000e+00
-1.225518e+05 3.786565e+05 -2.424433e+04
-1.217391e+05 4.000000e+05 -5.000000e+04
-9.213417e+04 3.778403e+05 -2.651563e+04
-6.923876e+04 -3.678233e+05 -5.000000e+04
-8.695652e+04 -4.000000e+05 -5.000000e+04
-5.217391e+04 -4.000000e+05 -5.000000e+04
-6.956714e+04 -4.000000e+05 -2.232106e+04
-1.249685e+05 3.520706e+05 -2.482839e+04
-1.038072e+05 3.678091e+05 -5.000000e+04
-1.739130e+04 -4.000000e+05 -5.000000e+04
-3.460350e+04 -3.678269e+05 -5.000000e+04
-3.478387e+04 -4.000000e+05 -2.232106e+04
-1.636761e+04 -3.752737e+05 -2.444865e+04
-8.376345e+04 3.320934e+05 -5.000000e+04
-1.000000e+05 3.000000e+05 -5.000000e+04
-8.343627e+04 3.000000e+05 -2.764981e+04
-1.023685e+05 3.239702e+05 -2.442960e+04
-6.666667e+04 3.000000e+05 -5.000000e+04
-5.137625e+04 3.218639e+05 -2.279542e+04
4.000000e+05 3.304348e+05 -5.000000e+04
4.000000e+05 3.130499e+05 -2.232112e+04
4.000000e+05 3.478935e+05 -2.235349e+04
3.672790e+05 3.296172e+05 -2.474204e+04
-6.047286e+04 3.474481e+05 -2.417549e+04
-7.724413e+04 3.236644e+05 -1.839304e+04
-8.379954e+04 3.323534e+05 0.000000e+00
-9.034627e+04 3.505377e+05 -2.472678e+04
3.000000e+05 -8.185378e+04 -2.769067e+04
3.000000e+05 -6.540655e+04 0.000000e+00
3.219928e+05 -9.278579e+04 -2.350525e+04
3.213251e+05 -6.350280e+04 -2.571256e+04
3.320030e+05 -7.972620e+04 -5.000000e+04
3.000000e+05 -4.823862e+04 -2.768751e+04
3.000000e+05 -6.175270e+04 -5.000000e+04
3.319980e+05 -4.560520e+04 -5.000000e+04
1.000000e+05 3.000000e+05 0.000000e+00
1.285492e+05 3.222096e+05 -2.333515e+04
1.166485e+05 3.000000e+05 -2.764255e+04
9.914085e+04 3.215417e+05 -2.557715e+04
1.172876e+05 3.321041e+05 -5.000000e+04
1.000000e+05 3.000000e+05 -5.000000e+04
1.172617e+05 3.323725e+05 0.000000e+00
1.739130e+04 -4.000000e+05 -5.000000e+04
3.478141e+04 -4.000000e+05 -2.232106e+04
3.460470e+04 -3.678270e+05 -5.000000e+04
1.641570e+04 -3.754506e+05 -2.427397e+04
9.664453e+04 3.481306e+05 -2.480840e+04
3.680819e+05 1.387484e+05 0.000000e+00
3.785149e+05 1.273940e+05 -2.666552e+04
3.525231e+05 1.597326e+05 -2.515442e+04
3.789806e+05 1.574581e+05 -2.426681e+04
4.000000e+05 1.565217e+05 0.000000e+00
4.000000e+05 1.391303e+05 -2.231930e+04
6.857177e+00 3.678309e+05 -5.000000e+04
1.673721e+04 3.320840e+05 -5.000000e+04
3.460423e+04 3.678269e+05 -5.000000e+04
2.844178e+04 3.508410e+05 -2.472162e+04
-3.461370e+04 -3.681008e+05 0.000000e+00
-1.739130e+04 -4.000000e+05 0.000000e+00
-1.676283e+04 3.320851e+05 -5.000000e+04
1.378112e+03 3.362478e+05 -2.510890e+04
3.679848e+05 1.390962e+05 -5.000000e+04
-4.999978e+04 -3.000000e+05 -2.235748e+04
-1.678469e+04 -3.000000e+05 -2.764887e+04
-1.676668e+04 -3.323444e+05 0.000000e+00
-5.479522e+04 -3.231600e+05 -2.798751e+04
4.000000e+05 1.565217e+05 -5.000000e+04
3.676239e+05 -2.421373e+05 -5.000000e+04
4.000000e+05 -2.434785e+05 -2.767896e+04
3.747721e+05 -2.281712e+05 -2.555946e+04
3.781731e+05 -2.607592e+05 -2.587663e+04
-3.128530e+05 -3.661813e+05 -5.000000e+04
-2.847026e+05 -3.321560e+05 -5.000000e+04
-3.161470e+05 -3.277621e+05 -5.000000e+04
-3.118625e+05 -3.403622e+05 -2.486951e+04
3.509470e+05 -2.651753e+05 -2.498209e+04
3.679951e+05 -2.423193e+05 0.000000e+00
4.000000e+05 -2.608696e+05 0.000000e+00
-1.455192e-10 3.000000e+05 -5.000000e+04
-1.665884e+04 3.000000e+05 -2.764283e+04
1.678621e+04 3.000000e+05 -2.764891e+04
3.000000e+05 -2.490234e+05 -2.248769e+04
3.324577e+05 -2.511100e+05 0.000000e+00
3.233427e+05 -2.639090e+05 -2.386118e+04
3.213235e+05 -2.322625e+05 -2.427257e+04
3.320637e+05 -2.503757e+05 -5.000000e+04
3.463445e+05 -2.305992e+05 -2.486406e+04
-3.698054e+05 -3.472763e+05 0.000000e+00
-3.663396e+05 -3.129808e+05 0.000000e+00
-3.315797e+05 -3.410949e+05 0.000000e+00
3.000000e+05 -2.319293e+05 -5.000000e+04
1.730839e+05 3.678997e+05 -5.000000e+04
1.571960e+05 3.749995e+05 -2.566968e+04
1.944750e+05 3.532359e+05 -2.496627e+04
1.915336e+05 3.784005e+05 -2.606486e+04
1.913043e+05 4.000000e+05 -5.000000e+04
1.739026e+05 4.000000e+05 -2.767885e+04
3.704421e+05 3.503181e+05 -5.000000e+04
-3.674293e+05 -2.066073e+05 -5.000000e+04
-3.492083e+05 -2.290965e+05 -2.538588e+04
-3.495470e+05 -1.977513e+05 -2.540621e+04
1.731007e+05 3.680556e+05 0.000000e+00
1.913043e+05 4.000000e+05 0.000000e+00
4.000000e+05 2.956522e+05 0.000000e+00
4.000000e+05 2.782599e+05 -2.232106e+04
3.699311e+05 2.951557e+05 -2.461389e+04
-2.177434e+05 -3.321524e+05 -5.000000e+04
-2.166738e+05 -3.000000e+05 -2.767207e+04
-2.000187e+05 -3.211973e+05 -2.674237e+04
-1.983970e+05 -3.480803e+05 -2.513770e+04
-2.179099e+05 -3.324288e+05 0.000000e+00
-2.000000e+05 -3.000000e+05 0.000000e+00
-4.000000e+05 -1.739130e+04 -5.000000e+04
-4.000000e+05 1.362271e+00 -2.232106e+04
-4.000000e+05 -3.478139e+04 -2.232106e+04
-3.765178e+05 -1.619438e+04 -2.422406e+04
-1.172644e+05 3.321057e+05 -5.000000e+04
-1.165333e+05 3.000000e+05 -2.235380e+04
-1.172626e+05 3.323723e+05 0.000000e+00
-1.350440e+05 3.242838e+05 -2.422565e+04
-1.000000e+05 3.000000e+05 0.000000e+00
3.000000e+05 -1.154172e+05 -2.769106e+04
3.000000e+05 -9.891990e+04 0.000000e+00
3.323674e+05 -1.164140e+05 0.000000e+00
3.494097e+05 -9.677091e+04 -2.469271e+04
3.320115e+05 -1.138445e+05 -5.000000e+04
3.000000e+05 -9.578803e+04 -5.000000e+04
-3.683842e+05 -3.117444e+05 -5.000000e+04
-3.704229e+05 -3.502942e+05 -5.000000e+04
-3.000000e+05 -1.676695e+04 -5.000000e+04
-3.000000e+05 -3.162526e+04 0.000000e+00
-3.000000e+05 1.537267e+03 0.000000e+00
-3.225488e+05 -1.458354e+04 -2.331887e+04
-2.625540e+05 -3.498971e+05 -2.512137e+04
-3.324526e+05 -2.845988e+05 0.000000e+00
-3.280582e+05 -3.160567e+05 0.000000e+00
-2.333333e+05 -3.000000e+05 0.000000e+00
-1.731007e+05 -3.680556e+05 0.000000e+00
-1.546296e+05 -3.758014e+05 -2.505216e+04
-1.738957e+05 -4.000000e+05 -2.758994e+04
-1.891587e+05 -3.758626e+05 -2.496961e+04
-2.077253e+05 -3.680332e+05 0.000000e+00
-2.239576e+05 -3.758730e+05 -2.504417e+04
-1.913043e+05 -4.000000e+05 -5.000000e+04
-2.086560e+05 -4.000000e+05 -2.240978e+04
-1.730589e+05 -3.677722e+05 -5.000000e+04
6.957979e+04 4.000000e+05 -2.232138e+04
5.217391e+04 4.000000e+05 0.000000e+00
3.478536e+04 4.000000e+05 -2.232108e+04
5.076412e+04 3.763602e+05 -2.419392e+04
5.217391e+04 4.000000e+05 -5.000000e+04
1.674987e+04 3.323474e+05 0.000000e+00
3.522601e+04 3.242376e+05 -2.441795e+04
3.461320e+04 3.681000e+05 0.000000e+00
4.999984e+04 3.000000e+05 -2.235747e+04
3.333333e+04 3.000000e+05 0.000000e+00
1.635001e+04 3.759242e+05 -2.428818e+04
-3.680268e+05 2.424010e+05 0.000000e+00
-3.502043e+05 2.289782e+05 -2.514523e+04
-3.680500e+05 2.077851e+05 0.000000e+00
-3.762988e+05 2.231425e+05 -2.580358e+04
6.042780e+04 3.499876e+05 -2.481666e+04
-1.731195e+05 3.680519e+05 0.000000e+00
-1.546044e+05 3.764508e+05 -2.417358e+04
-1.611291e+05 3.501230e+05 -2.473775e+04
-1.910926e+05 3.750896e+05 -2.428174e+04
-1.384382e+05 3.677954e+05 -5.000000e+04
-4.000000e+05 2.260870e+05 0.000000e+00
-4.000000e+05 2.086964e+05 -2.767894e+04
-1.565217e+05 4.000000e+05 -5.000000e+04
-1.391303e+05 4.000000e+05 -2.231930e+04
-1.739120e+05 4.000000e+05 -2.232105e+04
-2.883046e+05 -3.320639e+05 0.000000e+00
-3.323717e+05 -1.156481e+05 0.000000e+00
-3.485545e+05 -1.011074e+05 -2.467716e+04
-3.242629e+05 -9.130955e+04 -2.346029e+04
-3.283241e+05 -1.238851e+05 -2.581831e+04
[...]
CELL_DATA 16430
SCALARS total_strain double 6
LOOKUP_TABLE default
1.091795e-08 1.509314e-09 -2.158347e-09 -5.189387e-09 2.546959e-09 -8.831003e-10
5.765202e-09 3.106956e-09 -2.959083e-09 -2.138396e-09 2.025911e-09 -1.279348e-10
-2.163087e-10 6.657012e-09 -3.355362e-09 -1.468341e-09 2.266641e-09 -2.344346e-09
2.209251e-09 5.590372e-09 -3.402454e-09 -5.587609e-09 9.870277e-10 -1.993619e-09
3.786313e-10 6.687307e-09 -3.206504e-09 -2.244537e-09 3.008043e-09 -2.707543e-09
-3.940979e-09 -1.807974e-09 1.661937e-10 1.447211e-09 -9.777932e-10 3.605545e-10
-3.615267e-09 -2.474164e-09 1.190695e-09 7.405998e-10 -4.710838e-10 -1.427356e-10
-3.439105e-09 -3.553001e-09 7.773298e-10 1.186039e-09 -1.153697e-09 5.738854e-11
-4.718423e-09 -4.149601e-10 5.768550e-10 1.069018e-09 2.930555e-10 -9.077080e-11
-4.495433e-09 -2.105982e-12 4.966481e-10 3.008132e-10 -4.853719e-10 -8.879675e-12
-3.554428e-09 -2.288019e-09 9.553878e-10 6.110386e-10 -2.946459e-10 -1.568645e-10
-4.623436e-09 -3.381544e-10 6.954994e-10 5.377855e-10 -5.439891e-10 -5.796330e-11
1.733082e-08 -2.208413e-10 -3.023375e-09 -3.992370e-09 9.276642e-10 -6.180651e-10
9.704467e-09 3.865404e-09 -3.508656e-09 -6.557398e-09 -1.796831e-10 2.513708e-10
1.133031e-08 1.472486e-09 -2.713865e-09 -5.239224e-09 2.690073e-09 -6.721984e-10
1.044700e-08 -7.143988e-10 -2.314484e-09 -9.091073e-11 1.516670e-09 5.416112e-10
1.093470e-08 2.205346e-09 -2.859297e-09 -1.952578e-09 9.753273e-10 1.435367e-09
1.036988e-08 2.781986e-10 -2.991469e-09 8.330675e-11 1.664813e-09 2.808251e-10
-6.701103e-09 7.552198e-09 -3.191928e-09 2.548176e-09 3.743691e-09 -2.029109e-09
-9.357785e-09 9.073199e-09 -2.797496e-09 2.977980e-09 2.963719e-09 -2.125452e-09
-5.288349e-09 6.419003e-09 -2.048325e-09 9.564958e-10 1.694299e-09 -3.430407e-10
-8.268683e-09 5.587321e-09 -5.898655e-10 2.318745e-09 2.630006e-09 -8.091129e-10
-8.649778e-09 7.624053e-09 -2.055310e-09 2.976751e-09 3.317159e-09 -1.359315e-09
-9.156139e-09 7.093572e-09 -2.154181e-09 4.884313e-09 3.408668e-09 -1.624219e-09
5.503209e-09 -2.555173e-09 -7.118541e-10 -1.445529e-09 -1.939677e-10 -3.862477e-10
-3.589241e-09 2.612246e-09 4.281884e-10 -3.087619e-10 -1.282774e-11 -4.877654e-11
-3.696863e-09 2.533140e-09 3.834524e-10 -4.871992e-10 -7.544498e-11 -1.522781e-10
-3.424955e-09 2.587040e-09 3.128005e-10 -5.649663e-10 -8.805734e-11 -1.723288e-10
-3.744925e-09 2.685628e-09 3.576113e-10 -4.111753e-10 -5.667866e-11 -2.158124e-10
-3.616803e-09 2.549417e-09 4.028911e-10 -6.152234e-10 -9.648327e-11 9.791179e-11
-3.768962e-09 2.551290e-09 4.068181e-10 -7.399187e-10 -9.374840e-11 -1.083258e-10
-2.221491e-09 1.422321e-09 3.146732e-10 3.216449e-10 7.153123e-11 -2.351928e-10
-2.712344e-09 1.514433e-09 2.887397e-10 3.255669e-10 6.158313e-11 -4.518008e-11
-2.247928e-09 1.316669e-09 1.910312e-10 1.978743e-10 3.933125e-12 -1.108713e-11
2.053714e-08 -1.032994e-08 -3.417885e-08 -6.780565e-09 1.474996e-08 3.775090e-09
-8.315126e-11 -1.291954e-08 3.698959e-09 1.674759e-09 7.192066e-13 -1.377355e-10
1.545111e-10 -1.230550e-08 3.739971e-09 6.250107e-10 -3.248493e-10 1.970588e-10
-1.676685e-10 -1.344436e-08 3.890043e-09 1.025163e-09 -1.077603e-10 1.199417e-10
8.436825e-10 -1.360282e-08 3.882529e-09 6.713557e-10 -1.458793e-10 8.944356e-11
5.630682e-09 -3.005177e-09 -7.742369e-10 -1.184525e-10 -2.648558e-11 3.006440e-11
5.391749e-09 -3.009629e-09 -7.737277e-10 6.633273e-12 -7.927542e-12 2.238154e-11
8.888781e-09 -1.995261e-08 -3.824572e-09 -4.743334e-09 1.516854e-09 6.029021e-11
5.495622e-09 -2.940040e-09 -7.513612e-10 1.739179e-10 2.886042e-11 -1.725620e-12
5.364247e-09 -2.961462e-09 -7.452163e-10 1.661232e-11 3.220684e-11 3.868605e-11
5.441741e-09 -3.033793e-09 -7.681391e-10 -6.627865e-12 -4.823614e-12 2.011369e-11
-9.142499e-09 4.158760e-09 -5.144027e-10 -1.008504e-09 2.224749e-10 -1.540725e-10
3.919434e-09 -2.095366e-09 -6.389126e-10 -7.232582e-10 -6.996337e-11 -3.805445e-11
3.786180e-09 -1.755299e-09 -5.368281e-10 -8.506977e-10 -1.222870e-10 -9.883583e-11
3.469967e-09 -1.784831e-09 -5.795573e-10 -1.037102e-09 -1.773872e-10 2.923164e-10
3.964347e-09 -1.780778e-09 -6.161376e-10 -8.911707e-10 -2.582028e-10 8.094381e-11
3.850626e-09 -2.129121e-09 -6.837682e-10 -7.598802e-10 -1.570252e-10 -7.109263e-11
4.849324e-09 -1.595460e-08 3.120271e-09 -1.969584e-09 -7.182067e-10 -2.376594e-10
4.812783e-09 -1.646697e-08 3.144109e-09 -1.761079e-09 8.926410e-11 -3.560227e-10
3.337187e-09 -1.425136e-08 3.126037e-09 -2.420760e-09 -1.860996e-10 -4.141351e-10
4.810322e-09 -1.637263e-08 3.306491e-09 -1.737637e-09 2.782271e-10 -2.667482e-10
3.263416e-09 -1.287266e-08 2.724476e-09 -2.142652e-09 4.442018e-10 -3.511061e-10
3.418775e-09 -1.517830e-08 3.032872e-09 -2.576832e-09 -1.223586e-10 -1.320067e-10
3.598443e-09 -1.441602e-08 3.159780e-09 -1.336355e-09 -6.475486e-11 -6.490664e-10
1.013148e-08 -1.631540e-08 -6.868752e-09 -5.258360e-09 -3.626008e-09 -2.756986e-10
8.405622e-09 -1.881103e-08 -3.641794e-09 -2.631137e-09 -1.577782e-09 -3.480102e-10
6.449499e-09 -1.614483e-08 -4.830595e-09 -3.523698e-09 8.513301e-11 -2.538210e-10
8.409878e-09 -1.968434e-08 -2.525209e-09 -4.688381e-09 -2.895229e-09 -1.571767e-09
6.888612e-09 -1.707332e-08 -2.975526e-09 -2.905060e-09 -2.536759e-09 -1.571663e-10
6.535663e-09 -1.721139e-08 -3.916839e-09 -3.701356e-09 -1.857748e-09 -1.052519e-09
-3.463614e-09 -2.698568e-09 5.831244e-10 4.964629e-10 -1.519616e-10 -8.243195e-11
-3.356719e-09 -2.612435e-09 6.175980e-10 6.274499e-10 -3.181440e-10 -1.726329e-10
-3.657654e-09 -2.495359e-09 8.719487e-10 -2.731260e-10 2.242997e-10 2.351719e-11
3.031746e-08 -1.188417e-08 -3.896790e-10 -2.244204e-11 1.300937e-10 3.800489e-09
-4.190079e-09 -4.074064e-09 1.452173e-09 -4.225335e-09 -1.984874e-09 -8.212545e-10
-5.385740e-09 -1.488939e-09 3.912342e-10 -3.701705e-09 -1.279669e-09 -4.175280e-10
-7.134313e-09 -2.858755e-09 5.035430e-10 -2.198128e-09 -1.216353e-09 -1.609100e-10
-6.671415e-09 -2.115947e-10 1.181074e-09 -2.607910e-09 -1.147910e-09 -7.872136e-10
-6.743820e-09 -1.435619e-09 5.900516e-10 -3.229341e-09 -1.446969e-09 -5.551841e-10
1.488213e-08 4.378303e-08 -8.213293e-08 2.040288e-09 1.740908e-08 -7.539635e-10
-6.127975e-09 -4.304738e-09 1.430534e-09 -3.108095e-09 -2.065026e-09 -2.861840e-10
-4.674772e-09 -4.659064e-10 1.001300e-09 -1.926099e-10 -6.349854e-10 -1.234802e-10
-9.638498e-09 7.493315e-09 -2.107702e-09 4.919678e-09 3.255682e-09 -1.561205e-09
-7.901674e-09 7.589132e-09 -2.057004e-09 4.137782e-09 3.326269e-09 -2.059503e-09
-8.164910e-09 2.526751e-09 -1.407944e-09 6.949133e-09 8.661856e-10 -4.776445e-10
-8.996614e-09 7.730555e-09 -2.397327e-09 4.876729e-09 1.765135e-09 -8.841814e-10
-1.020857e-08 6.258034e-09 -2.858612e-09 6.319906e-09 2.512472e-09 -1.572715e-09
-8.547600e-09 6.241723e-09 -2.883610e-09 7.171939e-09 2.473675e-09 -1.308556e-09
-7.893200e-09 6.508770e-09 -2.759970e-09 6.309458e-09 2.798975e-09 -1.596947e-09
8.831450e-09 -2.356210e-08 -1.568466e-09 -5.735872e-09 -8.009440e-09 -1.869166e-09
7.310871e-09 -2.478195e-08 5.462375e-10 -7.098656e-09 -7.563090e-09 -1.436056e-09
6.313650e-09 -1.782838e-08 -7.087098e-11 -9.438994e-09 -7.400545e-09 -2.543501e-09
3.577448e-09 -1.730009e-08 3.041101e-10 -7.281191e-09 -6.928639e-09 -1.349313e-09
7.867203e-09 -1.815297e-08 -1.296292e-09 -9.361832e-09 -6.759921e-09 -2.943207e-09
6.079071e-09 -2.453332e-08 -1.320614e-09 -1.070423e-08 -1.129780e-08 -3.344027e-09
7.709097e-09 -2.148986e-08 3.050766e-09 1.085237e-10 9.981658e-10 -4.993922e-11
5.739622e-09 -3.289365e-09 -8.252545e-10 3.003735e-10 7.515288e-11 -3.600442e-11
6.210513e-09 -3.289365e-09 -8.546288e-10 2.977324e-10 7.208149e-11 2.251788e-10
5.689269e-09 -3.214014e-09 -7.516912e-10 -2.203123e-10 -2.356455e-11 7.780632e-11
5.921423e-09 -3.247844e-09 -7.507626e-10 -1.907547e-10 -2.155062e-11 9.249285e-11
6.031449e-09 -3.168819e-09 -7.642161e-10 -5.751217e-10 -6.164885e-11 4.365852e-11
5.912746e-09 -3.339832e-09 -8.327352e-10 -1.618488e-10 6.544126e-11 6.481077e-11
5.734265e-09 -3.277586e-09 -7.812662e-10 -5.013432e-10 -4.530043e-11 1.948743e-10
-3.407458e-09 1.218820e-09 7.984937e-10 5.201173e-10 1.708889e-10 1.456946e-10
-5.407584e-09 6.990941e-09 -2.865869e-09 -2.414793e-09 -5.382907e-09 -4.101922e-09
-8.015791e-09 8.907282e-09 -2.511560e-09 -3.202581e-09 -4.540897e-09 -4.662318e-09
-8.112545e-09 1.053228e-08 -4.903422e-09 -2.751529e-09 -5.620642e-09 -5.792759e-09
-2.410397e-09 2.263018e-09 1.512288e-10 -5.470735e-10 -1.476108e-10 -6.552714e-11
-2.432657e-09 2.263404e-09 1.679945e-10 -5.500258e-10 -9.307732e-11 1.045439e-10
-2.409982e-09 2.173532e-09 1.215461e-10 -5.482477e-10 -9.053558e-11 -6.648637e-11
-2.425596e-09 2.155100e-09 9.328049e-11 -8.280528e-10 -1.908045e-10 -4.779988e-11
-1.852652e-09 1.899135e-09 2.022138e-11 -7.235660e-10 -5.878964e-11 9.731446e-11
-2.417721e-09 1.987077e-09 1.220251e-10 -7.712186e-10 -9.601248e-11 -8.590367e-11
-1.978695e-09 1.915428e-09 -2.431855e-11 -6.690817e-10 -1.073022e-10 1.764435e-10
-2.418471e-09 1.898516e-09 -8.026912e-12 -7.617640e-10 -2.034346e-10 -7.468737e-11
-7.936836e-09 5.833182e-09 -1.778353e-09 2.746418e-09 2.079699e-09 -7.531525e-10
1.843759e-08 3.167543e-08 -8.068592e-08 5.759456e-09 4.014939e-08 -4.471263e-09
7.050354e-09 -2.017617e-08 3.490030e-09 2.336513e-10 1.016459e-10 -1.849942e-11
6.605203e-09 -1.885774e-08 3.654745e-09 -4.640229e-10 1.711025e-10 -1.348339e-10
6.732467e-09 -1.943319e-08 3.431448e-09 -2.965567e-10 -1.641127e-10 -1.112355e-10
6.770358e-09 -1.962999e-08 3.437205e-09 -4.603289e-10 -5.736322e-11 -1.277012e-10
-3.689471e-09 1.286482e-09 9.026815e-10 5.592974e-10 -2.042064e-10 -2.219922e-10
6.670673e-09 -2.024321e-08 3.652097e-09 -4.574772e-10 1.058438e-10 -1.292420e-10
6.926119e-09 -2.015112e-08 3.657012e-09 1.450773e-10 1.759879e-10 -1.281548e-10
-8.456847e-09 3.643580e-09 4.686194e-10 3.268888e-09 1.349178e-09 -6.243868e-10
-9.352838e-09 7.077967e-09 -8.536414e-10 5.382831e-09 2.752296e-09 -1.979499e-09
-9.135540e-09 3.319054e-09 -7.999730e-10 5.662233e-09 2.368243e-09 -5.809986e-10
-9.535547e-09 6.481592e-09 -2.133039e-09 5.296345e-09 4.179546e-09 -2.351255e-09
-8.068924e-09 5.519701e-09 -1.380276e-09 2.515468e-09 2.184158e-09 -6.329531e-10
-7.913876e-09 2.419576e-11 9.704957e-10 -1.061325e-09 -6.715295e-10 -1.728510e-10
2.331781e-08 -6.214823e-09 -4.194076e-08 -1.287520e-09 1.911385e-08 1.575033e-09
-6.999393e-09 -4.949925e-10 7.642598e-10 -1.035355e-09 -1.464510e-09 -3.834337e-10
2.964979e-10 -1.395725e-08 2.750248e-09 4.262284e-09 9.139938e-10 3.230471e-10
-8.594241e-09 2.292140e-10 1.637009e-09 -1.024437e-09 -3.090399e-10 -3.238659e-10
-8.363404e-09 4.042455e-11 1.552480e-09 -3.915810e-10 -8.848833e-11 -4.250338e-10
7.484322e-10 -1.175569e-08 1.027564e-09 2.214855e-09 -1.343206e-09 1.062233e-10
6.225975e-10 -1.117275e-08 2.535914e-09 1.492604e-09 -1.268196e-09 -1.469789e-10
-3.687758e-09 1.561650e-09 8.049446e-10 6.911621e-10 2.056551e-10 -2.549108e-10
1.701162e-09 -1.348493e-08 2.796832e-09 3.979572e-09 -9.989263e-10 3.163631e-10
2.305218e-09 -1.288047e-08 1.475969e-09 3.785309e-10 -1.626891e-10 2.419437e-10
1.616102e-09 -1.325301e-08 4.800658e-10 4.148260e-09 -2.332271e-09 7.866494e-10
-6.714269e-09 8.195232e-09 -1.663906e-09 3.280798e-10 2.141026e-09 -1.074450e-09
-8.466880e-09 6.290390e-09 -3.303582e-10 4.144497e-09 2.861105e-09 -1.317728e-09
-8.139882e-09 6.302608e-09 -5.935252e-13 2.250716e-09 1.834169e-09 -9.248604e-10
-8.545415e-09 5.341304e-09 3.937404e-10 4.423575e-09 2.617817e-09 -1.062792e-09
-3.018361e-09 7.483028e-09 -1.409605e-09 -6.753955e-10 1.663800e-09 -7.992172e-10
-8.112438e-09 7.703104e-09 -4.939704e-10 2.183253e-09 2.607240e-09 -1.790230e-09
-5.010053e-09 8.996085e-09 -2.674398e-09 -1.957505e-09 2.839552e-09 -1.619533e-09
-8.146705e-09 7.702373e-09 -1.668301e-09 2.198107e-09 2.577600e-09 -1.102804e-09
-4.581146e-09 1.005164e-08 -3.618660e-09 -3.447704e-10 3.376859e-09 -2.372870e-09
-5.675920e-09 8.234892e-09 -2.314694e-09 1.277417e-10 2.276241e-09 -9.743960e-10
4.829772e-10 7.609749e-09 -2.987325e-09 -3.175969e-09 1.427791e-09 -5.548140e-10
-8.628172e-09 2.103417e-09 1.094655e-09 5.337971e-09 2.959756e-09 -8.890601e-10
-8.929591e-09 3.793998e-09 -4.969771e-10 3.558678e-09 2.474485e-09 -5.570407e-10
-8.885261e-09 5.701440e-09 -5.832455e-10 4.746426e-09 2.738227e-09 -6.849335e-10
-8.463012e-09 6.252230e-09 -6.067298e-10 2.012648e-09 2.322400e-09 -4.365035e-10
-7.142652e-09 7.358044e-09 -2.149694e-09 3.177466e-09 2.987828e-09 -2.102753e-09
-9.545609e-09 6.391943e-09 7.192857e-10 4.883389e-09 2.031401e-09 -1.273398e-09
-8.579708e-09 3.096078e-09 -1.015406e-10 5.182948e-09 3.063294e-09 -1.184118e-09
-9.129274e-09 2.242306e-09 1.084686e-09 5.820524e-09 2.334274e-09 -5.811200e-10
-3.568744e-09 2.740051e-09 3.126313e-10 -8.795498e-11 -2.105183e-11 -1.665113e-11
-3.337647e-09 2.666889e-09 2.111249e-10 -1.568297e-10 -2.940870e-11 2.090905e-11
-3.456581e-09 2.573406e-09 2.517115e-10 -3.276610e-10 -4.647171e-12 1.920464e-11
-3.365919e-09 2.653853e-09 2.454001e-10 -1.780189e-10 -3.033418e-11 -4.579226e-12
-3.383505e-09 2.695513e-09 2.850249e-10 -2.408020e-10 -1.995926e-11 -6.656575e-11
-3.953970e-09 6.349792e-10 1.193196e-09 -5.145375e-10 1.861649e-10 -4.739405e-11
-3.496130e-09 2.735258e-09 2.482672e-10 -5.350897e-11 4.611617e-12 -4.815032e-11
-2.186740e-09 1.286516e-09 2.441400e-10 8.962564e-11 1.067395e-10 8.690293e-11
-2.214765e-09 1.128558e-09 2.807328e-10 3.616076e-10 2.209410e-11 -5.532019e-11
-1.982152e-09 1.179796e-09 1.993907e-10 1.645246e-10 1.778437e-10 1.100885e-11
1.454674e-08 6.798166e-09 -4.579470e-08 -6.175610e-09 7.184499e-09 1.341963e-09
-1.882065e-09 1.189097e-09 1.970673e-10 2.393141e-10 1.795590e-10 -1.157657e-11
-1.930042e-09 1.317014e-09 1.865512e-10 2.181882e-10 1.912359e-12 -1.035363e-11
-2.136215e-09 1.312353e-09 2.369571e-10 1.136251e-10 2.476130e-11 -8.725798e-11
-4.065555e-09 -1.820968e-09 1.006018e-09 1.519011e-09 -7.503546e-10 5.955170e-11
-3.782364e-09 -2.841262e-09 1.187767e-09 2.623133e-09 -1.331504e-09 4.383994e-10
-3.821951e-09 -2.147194e-09 9.120193e-10 1.289541e-09 -2.130460e-09 2.098620e-10
4.724496e-09 -2.202164e-09 -7.121865e-10 -8.053174e-10 -1.324401e-10 9.312307e-11
4.440435e-09 -2.005656e-09 -6.279364e-10 -1.503778e-09 -1.234080e-10 1.805831e-10
3.706621e-09 -2.032875e-09 -6.296621e-10 -1.342132e-09 -6.911893e-11 1.341227e-11
4.764624e-09 -2.471837e-09 -7.054148e-10 -7.785693e-10 -1.369660e-11 1.316105e-10
5.901959e-09 -1.856515e-08 3.371159e-09 -1.168727e-09 -2.143885e-10 -1.063653e-10
5.814702e-09 -1.870541e-08 3.363342e-09 -8.389941e-10 3.480267e-10 -1.851627e-10
6.503382e-09 -1.860436e-08 3.510354e-09 -4.191722e-10 2.056619e-10 -2.563391e-10
5.817853e-09 -1.672286e-08 3.652302e-09 -9.219536e-10 -4.106109e-10 -1.527632e-10
6.481051e-09 -1.927727e-08 3.625305e-09 -3.350632e-10 -8.259176e-11 -1.849203e-10
5.918102e-09 -1.859797e-08 3.585179e-09 -2.879091e-11 1.074699e-10 -1.996341e-10
-3.923886e-09 1.813129e-09 6.174310e-10 2.256211e-10 1.252864e-11 -5.788403e-11
-4.016560e-09 1.882706e-09 6.813350e-10 9.285750e-11 -1.050182e-11 -2.927558e-11
-9.377270e-09 7.343122e-09 -2.291826e-09 -1.601088e-09 -2.904431e-09 -1.027665e-09
3.415548e-08 -4.373650e-09 2.245115e-09 1.502648e-08 4.216852e-09 8.957854e-09
-8.603413e-09 6.268348e-09 -2.502345e-09 -2.173685e-09 -2.535025e-09 -6.773368e-10
-3.953971e-09 -7.016787e-11 1.210088e-09 -7.540934e-10 -1.428098e-10 -2.769061e-10
-8.493540e-09 5.507633e-09 -3.464064e-09 -3.453408e-09 -3.894377e-09 -2.080925e-09
-8.317583e-09 3.437313e-09 -3.649439e-09 -3.559946e-09 -3.154203e-09 -1.922924e-09
5.915198e-09 -1.896855e-08 3.956260e-09 1.060555e-09 1.898559e-10 1.385713e-10
6.498317e-09 -2.016592e-08 3.752782e-09 1.426534e-09 3.841888e-11 6.199303e-11
5.069182e-09 -1.847667e-08 3.777456e-09 2.300145e-09 -3.051498e-10 1.957514e-10
2.152696e-08 -3.603372e-09 -4.924079e-10 4.500258e-09 -9.975212e-10 3.413767e-09
6.507748e-09 -1.937101e-08 3.643243e-09 1.333668e-09 4.718304e-10 3.350920e-11
-1.383482e-09 1.097163e-09 1.305205e-10 5.581809e-10 1.365645e-10 -1.502376e-11
-2.032534e-09 1.123084e-09 2.658598e-10 8.095069e-10 5.967060e-11 2.282041e-11
-4.515518e-09 7.454370e-10 1.006488e-09 -8.514438e-10 -7.434120e-11 7.446710e-11
-2.060271e-09 1.322391e-09 2.771063e-10 3.120051e-10 7.312795e-11 -1.024263e-10
-1.885846e-09 1.220787e-09 2.276794e-10 2.689693e-10 4.289802e-11 -6.726619e-12
-8.586248e-09 -6.176655e-10 1.052284e-09 4.476347e-09 2.187648e-09 -6.425895e-10
-8.019228e-09 3.446421e-09 -7.551546e-10 6.169794e-09 2.292580e-09 -8.716066e-10
-7.461507e-09 5.295231e-10 1.374738e-09 4.170145e-09 1.667907e-09 -1.841997e-10
-7.412985e-09 -2.547683e-09 1.680442e-09 4.235060e-09 2.493246e-10 -5.173522e-10
-7.840551e-09 -1.643580e-09 7.787189e-10 5.835766e-09 1.858059e-09 -4.269227e-10
-8.747648e-09 1.945632e-09 -3.083696e-10 3.761334e-09 1.941059e-09 -4.434174e-10
-8.517402e-09 1.196454e-09 -2.585763e-10 3.796381e-09 1.756313e-09 -2.860798e-10
-3.077910e-09 1.603345e-09 4.227425e-10 5.858487e-10 9.136558e-11 -1.022827e-10
-3.156324e-09 1.619185e-09 5.501217e-10 6.407594e-10 1.669013e-10 -9.057899e-11
-3.011225e-09 1.688372e-09 4.282326e-10 3.962968e-10 4.803324e-11 -8.258505e-11
-3.239460e-09 1.651568e-09 4.346781e-10 3.016468e-10 1.565881e-11 -1.428209e-10
-2.834074e-09 1.485491e-09 4.143712e-10 5.345359e-10 5.077561e-11 -4.161543e-11
-2.883973e-09 1.580685e-09 4.268732e-10 6.265550e-10 -7.894352e-12 -4.101555e-11
-3.331928e-09 1.759075e-09 4.316385e-10 5.054192e-10 4.495226e-11 -4.010930e-11
-3.331159e-09 1.730031e-09 4.307383e-10 2.845529e-10 3.881340e-11 -1.126005e-10
-3.262924e-09 -2.093054e-09 1.586848e-09 -3.411808e-10 -1.187472e-11 -3.909489e-10
-3.379218e-09 -1.800162e-09 1.624674e-09 -6.237730e-10 1.305906e-10 -4.397097e-10
-3.952482e-09 -3.764875e-10 1.285567e-09 -5.100602e-10 -1.389563e-10 -2.761051e-10
-3.799513e-09 -2.139049e-10 1.366111e-09 -3.620750e-10 -5.199285e-11 -2.198577e-10
-3.623864e-09 -1.222066e-10 1.329323e-09 -5.120126e-10 1.261655e-10 -3.480072e-10
-2.170041e-09 -8.059803e-09 3.251184e-09 4.024356e-09 2.140435e-10 3.069090e-10
-4.012732e-09 2.182697e-09 5.447058e-10 3.646017e-11 3.052847e-11 -1.398637e-11
-2.193017e-09 -7.685041e-09 3.164271e-09 3.951473e-09 3.571333e-10 3.515975e-10
-3.334844e-09 -8.590874e-09 3.206949e-09 2.693008e-09 1.623786e-10 8.255069e-11
-2.111944e-09 -9.059585e-09 3.361604e-09 2.745000e-09 -4.000602e-10 2.523423e-11
-2.452822e-09 -8.795057e-09 3.339416e-09 2.559887e-09 1.280662e-10 3.673104e-10
1.121875e-08 7.590104e-09 -3.673283e-08 -7.592313e-09 -7.832369e-09 -7.014494e-10
1.349555e-08 4.635397e-09 -3.883777e-08 -5.118187e-09 -1.775785e-08 -7.626014e-11
8.206394e-09 2.314327e-08 -4.282315e-08 -6.755195e-09 -5.543488e-09 -1.400054e-09
8.195837e-09 2.018586e-08 -3.545380e-08 -5.210787e-09 -1.070612e-08 -2.684324e-09
5.629287e-09 -1.770554e-08 -5.275491e-11 -2.070351e-09 -1.373555e-09 -3.426382e-10
5.404593e-09 -1.883729e-08 -7.717440e-10 -3.036866e-09 -3.657419e-09 -7.644421e-10
5.626473e-09 -1.991587e-08 2.577414e-10 -2.214502e-09 -1.283171e-09 -3.822358e-10
5.333897e-09 -1.635721e-08 -9.946566e-11 -1.558658e-09 -1.268194e-09 -4.666649e-10
7.196308e-09 -2.067423e-08 1.977236e-10 -1.519028e-09 -1.671701e-09 -5.799490e-10
5.283341e-09 -1.231746e-08 -7.895356e-09 -6.363795e-09 -2.871889e-09 -1.392822e-09
8.240604e-09 -1.043934e-08 -1.185271e-08 -8.196759e-09 -1.672838e-09 -1.460719e-09
8.261146e-09 -1.077569e-08 -1.124410e-08 -8.401147e-09 -7.315160e-09 -1.176149e-09
1.010539e-08 -1.821147e-08 -1.050576e-08 -5.484243e-09 -6.962807e-09 -6.304683e-10
9.343574e-09 -1.219414e-08 -1.168283e-08 -6.705666e-09 -5.791543e-09 -1.067528e-09
-3.896652e-09 1.761497e-09 6.567114e-10 2.037450e-10 7.066359e-11 -1.404783e-10
-3.737101e-09 1.513429e-09 6.554601e-10 3.272596e-10 5.057854e-11 -9.570567e-11
2.717825e-09 -8.662706e-10 -2.010940e-08 -1.422159e-08 8.610984e-09 5.929115e-09
3.142248e-09 -1.546565e-09 -5.383254e-10 -4.039273e-10 -3.867462e-11 -3.356393e-11
8.884368e-09 -6.400432e-09 -1.901710e-08 -1.296099e-08 7.662759e-09 3.299418e-09
1.440319e-08 4.784925e-09 -3.856349e-08 -8.206240e-09 6.657212e-09 4.556557e-09