# vtk DataFile Version 2.0
Simplicial Mesh Example
ASCII
DATASET UNSTRUCTURED_GRID
POINTS 9490 double
4.132646e+04 -3.761110e+05 -2.495947e+04
1.739130e+04 -4.000000e+05 0.000000e+00
1.424943e+04 -3.757412e+05 -2.497841e+04
3.478261e+04 -4.000000e+05 -2.478841e+04
3.431474e+04 -3.668361e+05 0.000000e+00
6.536071e+04 -3.800007e+05 -2.495579e+04
5.217391e+04 -4.000000e+05 0.000000e+00
5.217391e+04 -4.000000e+05 -5.000000e+04
6.848295e+04 -3.663208e+05 -5.000000e+04
1.739130e+04 -4.000000e+05 -5.000000e+04
3.422046e+04 -3.663210e+05 -5.000000e+04
-4.000000e+05 1.043476e+05 -2.478869e+04
-3.778006e+05 1.290431e+05 -2.559237e+04
-3.668348e+05 1.033122e+05 0.000000e+00
-3.750401e+05 1.075547e+05 -3.181274e+04
4.000000e+05 -3.652174e+05 -2.500000e+04
3.692598e+05 -3.333058e+05 -2.499312e+04
3.776504e+05 -3.747415e+05 -2.247043e+04
3.693733e+05 -3.529960e+05 0.000000e+00
-4.000000e+05 8.695652e+04 0.000000e+00
-3.760516e+05 8.212939e+04 -2.543564e+04
-3.482879e+05 1.253124e+05 -2.574623e+04
-3.665651e+05 9.874016e+04 -5.000000e+04
-3.495547e+05 9.060720e+04 -2.563270e+04
-3.071185e+05 -3.486990e+05 -2.261025e+04
-3.153762e+05 -3.243183e+05 -5.000000e+04
-3.287827e+05 -3.355430e+05 -2.504110e+04
-3.095113e+05 -3.153966e+05 -2.507638e+04
-2.962358e+05 -3.323448e+05 0.000000e+00
-3.357456e+05 -3.422369e+05 0.000000e+00
-2.772919e+05 -3.669732e+05 0.000000e+00
-2.934123e+05 -3.742563e+05 -2.511903e+04
-2.806419e+05 -3.463229e+05 -2.661752e+04
-3.140042e+05 -3.607419e+05 -5.000000e+04
-3.320497e+05 -3.703516e+05 -2.524928e+04
-3.224905e+05 6.841821e+04 -2.756000e+04
-3.000000e+05 4.234958e+04 -2.422604e+04
-3.000000e+05 5.362570e+04 -5.000000e+04
-3.000000e+05 7.749820e+04 -2.479801e+04
3.227610e+05 -1.685566e+05 -2.697912e+04
3.499303e+05 -1.919500e+05 -2.498446e+04
3.500600e+05 -1.567367e+05 -2.546429e+04
3.335574e+05 -1.858748e+05 0.000000e+00
3.000000e+05 -1.659466e+05 0.000000e+00
3.208602e+05 -1.947095e+05 -2.232217e+04
3.000000e+05 -1.806737e+05 -2.506219e+04
3.330650e+05 -1.842018e+05 -5.000000e+04
3.000000e+05 -1.978940e+05 -5.000000e+04
3.000000e+05 -1.638587e+05 -5.000000e+04
-1.949782e+05 -3.787045e+05 -2.503133e+04
-1.713812e+05 -3.663209e+05 -5.000000e+04
-1.725141e+05 -3.772415e+05 -2.530126e+04
-1.913043e+05 -4.000000e+05 -5.000000e+04
-1.972219e+05 -3.510331e+05 -2.499278e+04
-1.739069e+05 -4.000000e+05 -2.478809e+04
-1.716829e+05 -3.668361e+05 0.000000e+00
-1.913043e+05 -4.000000e+05 0.000000e+00
1.358880e+05 -3.243044e+05 -2.504137e+04
1.166322e+05 -3.000000e+05 -2.516475e+04
1.497984e+05 -3.000000e+05 -2.516553e+04
1.333333e+05 -3.000000e+05 -5.000000e+04
1.825802e+05 3.751615e+05 -2.720292e+04
2.119132e+05 3.796036e+05 -2.524922e+04
2.061857e+05 3.668333e+05 0.000000e+00
1.947422e+05 3.503722e+05 -2.524152e+04
1.565217e+05 4.000000e+05 0.000000e+00
1.528807e+05 3.759790e+05 -2.499953e+04
1.739069e+05 4.000000e+05 -2.478809e+04
1.716839e+05 3.668365e+05 0.000000e+00
1.913043e+05 4.000000e+05 0.000000e+00
1.565217e+05 4.000000e+05 -5.000000e+04
1.713714e+05 3.663108e+05 -5.000000e+04
1.613560e+05 3.500277e+05 -2.506640e+04
-8.982230e+04 3.792244e+05 -2.494679e+04
-6.535746e+04 3.800015e+05 -2.495585e+04
-6.848071e+04 3.663195e+05 -5.000000e+04
-8.695652e+04 4.000000e+05 -5.000000e+04
-6.956522e+04 4.000000e+05 -2.478801e+04
-9.132937e+04 3.518806e+05 -2.497956e+04
-8.695652e+04 4.000000e+05 0.000000e+00
-6.863978e+04 3.668364e+05 0.000000e+00
8.983161e+04 -3.792230e+05 -2.494676e+04
8.695652e+04 -4.000000e+05 -5.000000e+04
6.956522e+04 -4.000000e+05 -2.478801e+04
8.695652e+04 -4.000000e+05 0.000000e+00
9.134075e+04 -3.518804e+05 -2.497894e+04
6.864043e+04 -3.668360e+05 0.000000e+00
-1.485035e+05 -3.773486e+05 -2.721498e+04
-1.630495e+05 -3.485427e+05 -2.521974e+04
-1.185212e+05 -3.761066e+05 -2.504756e+04
-1.217391e+05 -4.000000e+05 -5.000000e+04
-1.370985e+05 -3.663236e+05 -5.000000e+04
-1.217391e+05 -4.000000e+05 0.000000e+00
-1.391294e+05 -4.000000e+05 -2.478846e+04
-1.373218e+05 -3.668365e+05 0.000000e+00
-1.565217e+05 -4.000000e+05 0.000000e+00
-1.276844e+05 -3.500075e+05 -2.505733e+04
-3.784905e+05 1.568709e+05 -2.476156e+04
-3.664298e+05 1.337587e+05 -5.000000e+04
-3.514457e+05 1.599418e+05 -2.483113e+04
-4.000000e+05 1.565217e+05 -5.000000e+04
-4.000000e+05 1.391294e+05 -2.478846e+04
-3.668349e+05 1.375908e+05 0.000000e+00
-4.000000e+05 1.565217e+05 0.000000e+00
3.668265e+05 -1.714683e+05 0.000000e+00
4.000000e+05 -1.913043e+05 0.000000e+00
4.000000e+05 -1.739069e+05 -2.478809e+04
4.000000e+05 -1.565217e+05 0.000000e+00
3.763528e+05 1.812702e+05 -2.493822e+04
4.000000e+05 1.565217e+05 0.000000e+00
3.764050e+05 1.528124e+05 -2.490916e+04
4.000000e+05 1.739130e+05 -2.478510e+04
3.668383e+05 1.722952e+05 0.000000e+00
3.797466e+05 2.119345e+05 -2.497186e+04
4.000000e+05 1.913043e+05 -5.000000e+04
3.662642e+05 2.068445e+05 -5.000000e+04
3.507120e+05 1.619053e+05 -2.490325e+04
3.662844e+05 1.729597e+05 -5.000000e+04
4.000000e+05 1.565217e+05 -5.000000e+04
3.776488e+05 -7.900637e+04 -2.735718e+04
3.762845e+05 -4.901174e+04 -2.508786e+04
3.663605e+05 -6.676216e+04 -5.000000e+04
3.502306e+05 -5.807827e+04 -2.511783e+04
4.000000e+05 -5.217391e+04 -5.000000e+04
3.773063e+05 -1.038824e+05 -2.578879e+04
4.000000e+05 -8.695652e+04 0.000000e+00
3.668372e+05 -1.026508e+05 0.000000e+00
4.000000e+05 -5.217391e+04 0.000000e+00
4.000000e+05 -6.956519e+04 -2.478879e+04
3.668380e+05 -6.826645e+04 0.000000e+00
4.000000e+05 -1.043476e+05 -2.478869e+04
-1.666667e+05 -3.000000e+05 -5.000000e+04
-1.833333e+05 -3.000000e+05 -2.518468e+04
-1.933582e+05 -3.216521e+05 -2.503520e+04
-1.657267e+05 -3.213415e+05 -2.506307e+04
-1.666667e+05 -3.000000e+05 0.000000e+00
3.334882e+05 -2.202831e+05 0.000000e+00
3.000000e+05 -1.994599e+05 0.000000e+00
3.000000e+05 -2.085861e+05 -2.501244e+04
-1.859359e+05 -3.331067e+05 -5.000000e+04
-1.862587e+05 -3.335758e+05 0.000000e+00
-4.132523e+04 3.761107e+05 -2.495957e+04
-3.478261e+04 4.000000e+05 -2.478841e+04
-5.217391e+04 4.000000e+05 -5.000000e+04
-1.739130e+04 4.000000e+05 -5.000000e+04
-1.424890e+04 3.757408e+05 -2.497844e+04
-3.421938e+04 3.663190e+05 -5.000000e+04
-5.217391e+04 4.000000e+05 0.000000e+00
-1.739130e+04 4.000000e+05 0.000000e+00
-3.431405e+04 3.668365e+05 0.000000e+00
-2.739007e+04 3.505180e+05 -2.498776e+04
-1.739130e+05 4.000000e+05 -2.478510e+04
-1.528672e+05 3.759826e+05 -2.500255e+04
-1.716148e+05 3.668263e+05 0.000000e+00
-1.825315e+05 3.751689e+05 -2.721318e+04
-1.913043e+05 4.000000e+05 0.000000e+00
-2.059314e+05 3.667832e+05 0.000000e+00
-2.118669e+05 3.796033e+05 -2.526514e+04
-1.612599e+05 3.500460e+05 -2.507149e+04
-1.913043e+05 4.000000e+05 -5.000000e+04
-2.056558e+05 3.663226e+05 -5.000000e+04
-1.712892e+05 3.663242e+05 -5.000000e+04
-1.565217e+05 4.000000e+05 -5.000000e+04
3.507710e+05 -3.071241e+05 -1.983709e+04
3.472371e+05 -2.783609e+05 -2.630278e+04
3.316724e+05 -2.967750e+05 0.000000e+00
3.666108e+05 -2.775848e+05 0.000000e+00
3.309559e+05 -3.255688e+05 -2.698212e+04
3.397681e+05 -3.369212e+05 0.000000e+00
3.744093e+05 -2.934608e+05 -2.492539e+04
3.303054e+05 -2.869393e+05 -5.000000e+04
3.606270e+05 -3.135064e+05 -5.000000e+04
-3.238506e+05 1.781151e+05 -2.284516e+04
-3.335738e+05 1.866432e+05 0.000000e+00
-3.000000e+05 1.673499e+05 0.000000e+00
-3.000000e+05 2.005124e+05 0.000000e+00
-3.242363e+05 2.019112e+05 -2.479758e+04
-3.335722e+05 1.528704e+05 0.000000e+00
-3.219833e+05 1.550144e+05 -2.418889e+04
-3.331119e+05 1.814444e+05 -5.000000e+04
-3.500623e+05 1.947691e+05 -2.492389e+04
3.000000e+05 -1.480457e+05 -2.518612e+04
3.070808e+05 3.546107e+05 -1.714572e+04
2.838715e+05 3.432764e+05 -2.626473e+04
2.962288e+05 3.323792e+05 0.000000e+00
2.772894e+05 3.669850e+05 0.000000e+00
3.214547e+05 3.369143e+05 -2.636251e+04
3.136723e+05 3.607135e+05 -5.000000e+04
2.935138e+05 3.747013e+05 -2.499119e+04
3.357389e+05 3.423035e+05 0.000000e+00
3.310854e+05 3.708053e+05 -2.520548e+04
-3.303425e+05 2.864208e+05 -5.000000e+04
-3.469504e+05 2.817468e+05 -2.677742e+04
-3.300427e+05 3.281790e+05 -2.631692e+04
-3.606526e+05 3.133330e+05 -5.000000e+04
-3.538099e+05 3.084519e+05 -1.787405e+04
-3.749470e+05 2.933940e+05 -2.493585e+04
-3.716865e+05 3.330494e+05 -2.604840e+04
-3.422611e+05 3.357632e+05 0.000000e+00
-3.323575e+05 2.962961e+05 0.000000e+00
-3.669772e+05 2.773495e+05 0.000000e+00
-3.208683e+05 1.285984e+05 -2.543766e+04
-3.000000e+05 1.341874e+05 0.000000e+00
-3.000000e+05 1.457374e+05 -2.479770e+04
-3.331557e+05 1.463574e+05 -5.000000e+04
-3.335717e+05 1.191216e+05 0.000000e+00
-3.000000e+05 1.116890e+05 -2.479816e+04
3.750985e+05 1.731082e+04 -2.495385e+04
3.668370e+05 3.487991e+04 0.000000e+00
3.766226e+05 5.120408e+04 -2.491509e+04
3.486553e+05 3.094323e+04 -2.470062e+04
3.664079e+05 2.208090e+03 -5.000000e+04
3.755591e+05 -1.521008e+04 -2.489784e+04
3.365423e+05 9.969610e+02 -2.491966e+04
3.668382e+05 4.985393e+02 0.000000e+00
4.000000e+05 8.858707e-04 -2.478866e+04
4.000000e+05 1.739130e+04 0.000000e+00
3.664904e+05 3.662308e+04 -5.000000e+04
4.000000e+05 1.739130e+04 -5.000000e+04
4.000000e+05 3.478261e+04 -2.478841e+04
3.241835e+05 -1.338846e+05 -2.511108e+04
3.331162e+05 -1.156285e+05 -5.000000e+04
3.331063e+05 -1.499070e+05 -5.000000e+04
3.000000e+05 -1.298234e+05 -5.000000e+04
3.000000e+05 -1.142814e+05 -2.518156e+04
3.501925e+05 -1.229656e+05 -2.536930e+04
3.335703e+05 -1.518628e+05 0.000000e+00
3.335746e+05 -1.178848e+05 0.000000e+00
3.000000e+05 -1.324332e+05 0.000000e+00
-1.185180e+05 -3.335740e+05 0.000000e+00
-1.333333e+05 -3.000000e+05 0.000000e+00
-1.000000e+05 -3.000000e+05 0.000000e+00
-1.166667e+05 -3.000000e+05 -2.516967e+04
3.767701e+05 8.545747e+04 -2.498937e+04
4.000000e+05 8.695652e+04 -5.000000e+04
3.664910e+05 7.093362e+04 -5.000000e+04
3.664147e+05 1.050627e+05 -5.000000e+04
4.000000e+05 8.695652e+04 0.000000e+00
3.668311e+05 6.925743e+04 0.000000e+00
4.000000e+05 6.956522e+04 -2.478801e+04
3.532003e+05 6.143720e+04 -2.460611e+04
3.529343e+05 9.380645e+04 -2.566405e+04
-6.874474e+04 -3.242435e+05 -2.504036e+04
[...]
CELL_DATA 20058
SCALARS total_strain double 6
LOOKUP_TABLE default
-5.424825e-10 2.194181e-09 -2.465309e-10 -3.540323e-09 -5.963957e-11 -2.922116e-10
-2.490141e-09 2.677458e-09 -7.775602e-11 -2.633084e-09 -3.414543e-10 2.760459e-11
8.865877e-10 1.213743e-09 -5.143592e-10 -3.057333e-09 -2.678619e-10 -4.127115e-10
-1.079137e-11 1.451381e-09 -3.173588e-10 -3.320938e-09 -2.082393e-10 1.712560e-10
-1.891426e-09 2.482579e-09 -2.499211e-10 -2.444228e-09 -2.375448e-10 -5.561007e-11
-1.105068e-09 1.992423e-09 -2.827212e-10 -3.320519e-09 -3.900105e-10 -1.426772e-10
-1.728098e-10 1.613042e-09 -2.966393e-10 -2.726719e-09 -2.686847e-10 -1.173504e-10
-2.642880e-09 -2.289319e-08 4.984767e-09 1.184936e-08 1.429638e-09 9.557642e-11
-7.377995e-09 -2.166382e-08 6.310929e-09 1.576015e-08 3.677342e-09 -1.727778e-10
-3.005068e-09 -2.219964e-08 6.197407e-09 1.117082e-08 2.624281e-09 -2.364213e-10
-8.522549e-09 -1.356899e-08 6.062189e-09 1.141532e-08 2.387684e-09 -7.396906e-10
-6.753727e-09 -2.043135e-08 5.811223e-09 1.380934e-08 3.658160e-09 -1.252272e-09
-4.371401e-09 -2.059891e-08 6.208436e-09 1.221447e-08 1.653948e-09 2.178271e-10
1.017389e-08 -5.489053e-09 -1.316602e-09 -1.640067e-10 2.688086e-11 1.616912e-10
9.286114e-09 -5.674309e-09 -1.379791e-09 2.303897e-10 -2.843829e-12 -1.431073e-10
9.401501e-09 -5.527085e-09 -1.258632e-09 3.662991e-10 1.524670e-10 -2.047473e-11
-2.064141e-09 -1.791104e-08 5.216141e-09 -4.843955e-09 -3.114560e-10 -1.089815e-09
-7.081379e-09 -6.213178e-09 4.376506e-10 1.825053e-09 -2.437953e-10 1.710235e-10
-1.288556e-09 -1.820741e-08 5.369209e-09 -2.903607e-09 -6.878275e-11 2.188044e-10
6.245660e-11 -1.791455e-08 5.251488e-09 -4.844511e-09 -3.220219e-10 -7.134741e-10
1.534691e-09 -1.827649e-08 5.569356e-09 -2.600319e-09 -1.032353e-10 -5.801760e-10
9.236034e-10 -2.181244e-08 5.573348e-09 -4.072247e-09 -1.140140e-10 -5.820925e-10
-4.515869e-09 4.302227e-09 1.309792e-10 -1.962623e-09 -2.055692e-10 -1.420285e-10
-7.749559e-09 2.760587e-08 -1.573686e-08 -4.538751e-09 7.942919e-09 -1.047068e-08
-3.656462e-09 3.624477e-09 1.280012e-10 -1.681487e-09 -1.376145e-10 9.334200e-11
-5.558398e-09 4.422754e-09 1.997962e-10 -1.481437e-09 -7.597600e-11 -2.254159e-10
-5.261057e-09 4.366798e-09 2.473541e-10 -1.392096e-09 -1.202410e-10 -1.907394e-10
-4.437292e-09 4.414413e-09 2.506364e-10 -1.110016e-09 -7.046985e-11 -9.910894e-11
-4.737064e-09 4.390609e-09 2.285390e-10 -1.126814e-09 -7.430145e-11 1.255297e-10
-8.940988e-10 2.353419e-09 -4.330181e-10 -2.235120e-09 -4.466794e-10 -3.215789e-11
-1.536780e-10 1.316940e-09 -2.822267e-10 -1.455971e-09 -5.703304e-11 1.091927e-10
-7.412071e-10 9.404850e-10 -4.568044e-10 -2.440135e-09 -1.311745e-10 1.059420e-10
7.891836e-09 -2.824648e-08 -4.392665e-09 7.107739e-09 -7.051615e-09 1.222308e-09
9.153578e-09 -2.689465e-08 -3.989885e-09 4.829611e-09 -2.371656e-09 1.038116e-09
7.800166e-09 -2.913042e-08 -3.285574e-09 6.779572e-09 -3.711545e-09 1.483223e-09
7.790979e-09 -4.304399e-09 -1.212504e-09 -1.602079e-09 -1.231741e-10 5.530516e-10
8.461024e-09 -4.133321e-09 -1.248596e-09 -1.376636e-09 -6.930595e-12 1.594304e-10
7.375502e-09 -3.794166e-09 -1.092004e-09 -1.852102e-09 -2.010639e-10 1.428979e-10
5.470435e-09 -3.222179e-09 -1.078253e-09 -1.706655e-09 -1.054249e-10 -6.291068e-11
-5.565319e-09 3.187231e-09 9.209664e-10 4.500908e-10 7.790688e-11 4.113765e-10
7.907953e-09 -4.099097e-09 -1.164655e-09 -1.331656e-09 -1.592682e-10 5.623153e-10
2.602220e-10 3.205098e-09 -3.286009e-08 1.004644e-08 -1.295210e-08 8.861248e-09
6.383061e-09 -3.123359e-09 -1.209445e-09 -1.776709e-09 -3.169691e-11 -5.337353e-11
-7.860276e-09 3.063635e-09 1.524692e-09 5.216636e-10 1.989546e-10 -1.636764e-10
-7.918163e-09 3.242489e-09 1.442035e-09 4.403233e-10 4.706824e-11 -1.503677e-10
-7.637205e-09 3.176528e-09 1.343624e-09 3.602496e-10 1.136271e-10 1.829201e-12
-8.018775e-09 3.470698e-09 1.432772e-09 5.608314e-10 1.698457e-10 -1.967574e-10
-8.103474e-09 3.586273e-09 1.402952e-09 3.214552e-10 -7.969875e-12 -3.532205e-12
4.987470e-08 -1.561712e-09 -1.134412e-09 1.987587e-08 5.300923e-09 4.726327e-09
1.081771e-08 -3.994641e-08 8.436428e-09 9.470225e-10 2.217469e-16 -1.571741e-10
6.675481e-08 -1.343975e-08 1.093536e-09 1.836072e-08 4.298430e-09 1.710472e-08
3.263055e-08 -1.296213e-09 -1.059341e-08 2.057445e-08 -2.263356e-09 8.923452e-10
4.872259e-08 -1.577845e-09 -2.982883e-09 2.083419e-08 7.447734e-09 8.215846e-09
5.527080e-08 -2.934256e-09 -2.881866e-09 2.880096e-08 7.529242e-09 1.555238e-08
6.999412e-09 1.704193e-08 -4.371780e-08 6.326662e-09 -5.457568e-09 3.094852e-09
6.526167e-08 -2.128660e-08 2.073948e-09 -7.959062e-09 -2.769465e-10 4.668971e-09
6.338857e-08 -3.017065e-08 9.662701e-09 1.708929e-09 2.772708e-10 1.317112e-09
6.215041e-08 -2.548970e-08 -1.290212e-10 -4.341042e-09 3.083083e-09 1.737843e-09
6.479665e-08 -2.879135e-08 7.520983e-09 -6.249707e-09 -1.506497e-09 1.045239e-09
6.477048e-08 -3.029609e-08 7.551198e-09 2.142942e-10 1.687846e-09 1.069293e-09
6.596678e-08 -2.828551e-08 1.028411e-08 -5.038825e-09 7.210819e-10 2.887665e-09
4.469337e-08 -1.029347e-08 8.556281e-09 -2.287582e-08 -5.713470e-09 1.259376e-08
3.473310e-08 -8.140090e-09 9.970639e-09 -1.827449e-08 -4.056042e-09 7.648622e-09
3.464110e-08 -6.533430e-09 2.953954e-09 -1.813640e-08 -9.505689e-10 9.078399e-09
6.825789e-08 -2.479215e-08 9.837826e-09 -1.500891e-08 -1.090076e-09 2.505813e-08
6.592068e-08 -2.469410e-08 3.409179e-08 -1.503429e-08 -2.698444e-09 2.324122e-08
4.889731e-08 -1.286333e-08 8.745319e-09 -2.243105e-08 -6.529528e-09 6.588901e-09
4.856719e-08 -1.527442e-08 1.598860e-08 -2.347747e-08 -8.047518e-09 4.921660e-09
3.992834e-10 1.976850e-08 -8.113044e-09 -1.052563e-08 1.009701e-09 -4.507737e-09
2.060315e-08 1.932938e-08 -3.698422e-09 -1.436346e-08 -4.378433e-10 5.061038e-09
2.993001e-08 5.808900e-09 -2.181633e-09 -1.400785e-08 -2.285791e-09 7.126968e-09
2.543672e-09 1.248511e-08 -2.674784e-09 -8.360569e-09 -6.715066e-10 2.235954e-11
1.636942e-08 4.727953e-09 -5.011402e-09 -1.006766e-08 -4.664841e-10 9.269181e-10
-3.819077e-09 3.831979e-09 6.843925e-11 -1.124940e-09 -1.293394e-10 1.088514e-10
-3.329724e-09 3.682759e-09 1.536749e-11 -1.462923e-09 -2.451332e-10 -8.750692e-11
-2.027232e-09 3.067042e-09 -1.807383e-10 -1.483970e-09 -2.085553e-10 -1.285529e-10
-3.216839e-09 2.939564e-09 -9.288748e-11 -1.007813e-09 -2.393050e-10 -1.107847e-10
-4.227129e-09 2.426576e-09 5.611027e-10 1.443807e-10 1.599729e-10 -8.521009e-11
-4.853254e-09 2.856815e-09 6.123320e-10 3.891154e-11 1.152116e-10 4.535283e-11
-2.760937e-09 1.704996e-08 -2.835235e-08 4.121542e-09 -3.060593e-09 2.118467e-09
-5.139450e-09 2.900224e-09 6.801575e-10 3.499678e-10 1.849110e-10 2.118127e-10
-4.858348e-09 2.943475e-09 5.851639e-10 5.454293e-10 1.463709e-10 -4.204415e-11
-4.541580e-09 2.596944e-09 5.966498e-10 9.322525e-10 2.242944e-10 1.760237e-10
-4.093440e-09 2.100522e-09 5.649166e-10 5.020544e-10 1.218012e-10 2.266853e-11
-1.794633e-08 2.222748e-08 6.040883e-09 7.043836e-09 -5.072830e-09 -1.249018e-09
-4.386246e-09 3.055765e-09 5.833347e-10 8.462999e-10 1.238230e-10 -5.637579e-11
-8.249154e-09 1.485211e-08 -2.060448e-08 2.851081e-10 -3.370045e-09 3.802747e-09
-8.792112e-09 -1.682856e-08 5.330464e-09 8.649325e-09 1.622012e-09 -5.880021e-10
-1.156717e-08 -1.369769e-08 5.942161e-09 6.770172e-09 8.330126e-10 -5.283462e-10
-1.154195e-08 -1.201192e-08 5.133220e-09 7.135165e-09 1.604642e-09 -6.113441e-10
-1.327954e-08 -1.404442e-08 6.007971e-09 9.590812e-09 2.596558e-09 -2.284335e-10
-8.486931e-09 -1.339218e-08 3.119109e-09 1.126773e-08 3.215936e-09 -6.580488e-10
-2.633224e-09 3.144180e-09 -1.478426e-10 -2.207391e-09 -2.181406e-10 -2.332998e-10
-3.326059e-09 3.547073e-09 3.209455e-11 -1.437754e-09 -1.869898e-10 -1.094949e-10
-3.470255e-09 3.348482e-09 1.083089e-11 -9.237012e-10 6.697317e-11 -3.199796e-11
-2.677164e-09 2.795223e-09 -9.049206e-11 -1.340405e-09 -2.777945e-10 -1.300608e-10
-2.523139e-09 2.830829e-09 -1.478004e-10 -2.244775e-09 -4.715295e-11 -3.163054e-10
-2.901463e-09 3.184489e-09 -1.464873e-11 -1.348848e-09 -2.999600e-12 -2.988740e-10
-1.866253e-08 3.864466e-09 9.127681e-10 -8.771817e-09 -8.091771e-09 -2.320106e-09
-1.912497e-08 1.100113e-08 -2.721663e-09 -5.594303e-09 -5.653089e-09 -1.646105e-09
-1.742866e-08 -4.717310e-10 9.379608e-12 -8.197764e-09 -8.119049e-09 -2.733179e-09
-1.735458e-08 3.960603e-09 -1.679083e-09 -8.414230e-09 -8.092339e-09 -2.082938e-09
-1.851101e-08 7.186410e-09 -4.058669e-09 -8.889027e-09 -7.922060e-09 -3.397296e-09
6.658224e-08 -2.007024e-08 -6.842962e-09 -1.060301e-09 2.561067e-10 4.545476e-09
6.663115e-08 -2.005825e-08 -1.157389e-09 -1.426381e-09 8.066287e-10 2.502449e-09
1.169322e-08 1.218153e-08 -5.521806e-09 2.107326e-09 4.920952e-09 1.153640e-10
7.357238e-08 -1.980487e-08 -8.938945e-09 -2.753241e-09 -6.199505e-10 9.641364e-09
7.284861e-08 -1.430963e-08 -1.175833e-08 5.592768e-09 4.030492e-09 1.292527e-08
6.280531e-08 -1.242661e-08 -3.318971e-09 -5.557391e-11 9.683807e-10 5.030604e-09
6.033090e-08 -1.648562e-08 -5.068319e-09 3.917101e-09 -1.446598e-10 5.474664e-09
-1.394732e-08 -8.939600e-09 4.242879e-09 3.044144e-09 2.535043e-09 -1.217733e-09
-1.196703e-08 -9.143977e-09 1.595314e-09 5.647873e-09 1.938483e-09 -1.263980e-09
-1.176951e-08 -8.853526e-09 4.584536e-09 6.570741e-09 3.660508e-09 -2.361171e-10
-2.147856e-08 2.212713e-08 -1.135816e-10 5.926767e-09 1.283686e-09 2.512175e-09
-8.875942e-09 -1.678294e-08 4.737454e-09 7.271230e-09 2.185091e-09 -9.199435e-10
-1.163734e-08 -1.348068e-08 5.304978e-09 3.546960e-09 2.078640e-09 2.926015e-10
-5.286417e-09 2.891497e-09 7.096141e-10 7.325509e-10 1.251755e-10 2.150374e-10
-5.567095e-09 3.203422e-09 7.239940e-10 5.707985e-10 7.913181e-11 -1.017742e-12
-3.960476e-09 2.141848e-09 5.713860e-10 4.032858e-10 1.907283e-10 -3.049310e-10
-6.186208e-09 3.290695e-09 7.339405e-10 3.800222e-10 1.617916e-10 -1.687675e-10
-4.917715e-09 2.849021e-09 7.366312e-10 8.136558e-10 9.185874e-11 -2.456799e-10
-5.285035e-09 2.990309e-09 8.059180e-10 9.654351e-10 1.916426e-10 -1.134381e-10
-4.173240e-09 2.551650e-08 -2.160848e-08 -2.730130e-08 4.115242e-09 6.118026e-09
-1.446043e-09 2.796355e-08 3.546103e-09 -2.991730e-08 2.637767e-09 3.860696e-09
1.688909e-09 2.108801e-08 4.382584e-09 -2.940214e-08 4.633163e-09 9.841788e-10
-2.612223e-09 3.308738e-09 6.703260e-11 -4.840095e-09 2.966449e-11 1.496326e-10
9.580541e-09 1.480936e-08 2.389417e-09 -3.229521e-08 4.487647e-09 6.460838e-10
3.555213e-10 2.030267e-08 1.847213e-09 -3.025329e-08 3.056024e-09 3.823282e-09
8.018210e-09 -4.347579e-09 -1.237551e-09 -9.288763e-10 -1.805961e-10 -5.830447e-12
8.677326e-09 -4.793520e-09 -1.219876e-09 -9.369936e-10 -7.271123e-11 1.660090e-10
7.044164e-09 -3.974043e-09 -1.131203e-09 -1.737578e-09 -1.042169e-10 -2.298323e-10
8.880080e-09 -4.944131e-09 -1.286069e-09 -1.332548e-09 -8.739656e-11 -3.670074e-11
8.566554e-09 -3.950560e-09 -1.243215e-09 -1.897260e-09 -2.943433e-10 6.834017e-11
8.355794e-09 -4.894193e-09 -1.173519e-09 -1.182203e-09 -2.287779e-10 6.782017e-11
-1.065097e-08 5.361343e-09 -1.920593e-09 -2.473205e-09 -4.499161e-10 -3.693195e-10
-1.038944e-08 3.618896e-09 9.038503e-11 -1.995289e-09 -2.615756e-10 -3.246490e-10
-1.047983e-08 4.934351e-09 -7.711956e-10 -2.802202e-09 -9.546715e-10 1.744482e-10
-1.056081e-08 3.585148e-09 5.392975e-10 -2.073704e-09 -1.420837e-10 -1.442035e-10
9.566977e-09 -5.341338e-09 -1.337567e-09 1.916544e-10 3.617984e-11 1.741951e-11
9.453052e-09 -5.402924e-09 -1.300487e-09 3.712549e-10 2.343002e-11 1.821845e-10
8.836905e-09 -5.228994e-09 -1.301707e-09 8.979668e-10 -1.578558e-11 -8.574641e-11
1.005288e-08 -5.726021e-09 -1.405706e-09 1.058056e-09 -6.849854e-12 -1.933367e-10
1.018804e-08 -5.874924e-09 -1.325867e-09 4.414512e-10 1.575427e-10 1.449414e-10
9.678371e-09 -5.479457e-09 -1.349180e-09 1.650637e-10 -5.809395e-11 1.383116e-10
9.398429e-09 -5.418390e-09 -1.318939e-09 -8.717221e-11 2.888496e-11 1.185252e-10
9.628993e-09 -5.640958e-09 -1.344557e-09 1.328542e-10 9.800979e-11 8.954948e-12
1.068595e-08 -5.653614e-09 -1.297025e-09 9.492545e-11 7.437632e-11 2.855437e-10
-1.342728e-09 3.144627e-08 -4.297208e-08 -3.146498e-09 -5.171910e-09 3.442209e-09
-4.036276e-09 2.394625e-09 6.012706e-10 6.093628e-10 -2.686951e-11 7.066137e-11
-4.329207e-09 2.431980e-09 6.329408e-10 1.425131e-09 1.783531e-10 -2.154552e-10
-4.144691e-09 2.222023e-09 5.055059e-10 1.383353e-09 9.763289e-13 -3.164993e-10
-4.567156e-09 2.557462e-09 6.243481e-10 8.270340e-10 2.494448e-12 -2.726022e-10
-5.149198e-09 2.774811e-09 6.008984e-10 1.117455e-09 1.146629e-10 -8.268408e-11
-4.887875e-09 2.809230e-09 6.845586e-10 9.732496e-10 1.471382e-10 -9.223949e-11
4.314235e-09 -1.007894e-08 -2.268229e-08 -2.370059e-08 4.466708e-09 1.004631e-09
-8.897711e-09 6.155989e-09 -1.076109e-08 -2.057058e-08 4.479730e-09 3.185747e-09
-1.755196e-08 1.048965e-08 -5.123797e-09 -9.286733e-09 2.910206e-11 2.564953e-10
-8.630360e-09 -1.964191e-09 -1.085291e-08 -2.053475e-08 3.302656e-09 3.336132e-09
2.551078e-10 -8.056471e-09 -1.561286e-08 -2.297323e-08 6.194498e-10 -1.416350e-09
-5.407843e-09 -3.396729e-09 -1.198021e-08 -2.133509e-08 4.420905e-09 3.548910e-09
1.370577e-08 -2.919766e-08 -1.383356e-08 -1.192330e-08 -7.971677e-09 -1.178434e-09
9.152345e-09 -2.972135e-08 -8.634198e-09 -7.769076e-09 -6.258684e-09 -1.341467e-09
9.332375e-09 -2.501896e-08 -1.334190e-08 -9.056788e-09 -7.003862e-09 -2.247536e-10
1.047838e-08 -2.162674e-08 -2.051641e-08 -1.400811e-08 -5.203567e-09 -2.188787e-09
9.351423e-09 -2.492555e-08 -7.872949e-09 -9.012887e-09 -3.084585e-09 1.115101e-09
5.971201e-09 -2.352687e-08 -1.135866e-08 -9.378988e-09 -3.664246e-09 -2.331996e-09
-4.900027e-10 1.808663e-09 -3.665859e-10 -2.756881e-09 -3.981615e-10 -2.273903e-10
-5.733849e-10 1.609608e-09 -2.566616e-10 -1.678553e-09 7.014834e-12 -1.154015e-10
6.966416e-10 1.315760e-09 -4.166947e-10 -2.185019e-09 -6.621192e-11 1.594519e-11
7.677017e-10 7.729204e-10 -5.402891e-10 -2.563184e-09 -3.278817e-10 -1.954934e-10
-1.581397e-08 1.058146e-09 -7.863478e-09 -8.188038e-09 -5.361477e-09 -2.883479e-09
-1.602738e-08 7.298090e-09 -9.932163e-09 -7.404249e-09 -5.430199e-09 -1.504309e-09
-1.691844e-08 4.452157e-09 -5.471356e-09 -5.505714e-09 -2.451348e-09 -1.275875e-09
-1.344782e-08 2.371964e-09 -7.894504e-09 -9.182995e-09 -1.692484e-10 3.168696e-10
-4.015202e-09 4.211390e-09 3.610667e-11 -4.110857e-10 -1.078306e-10 -7.793423e-11
-3.721330e-09 3.630589e-09 1.393419e-11 -1.268306e-09 -2.541403e-10 -4.753203e-11
-3.878882e-09 4.205839e-09 -1.971279e-11 -7.651424e-10 -1.027772e-10 -1.567943e-10
-9.208474e-09 2.117128e-08 -3.495267e-08 -1.565856e-08 -2.868700e-09 -2.002121e-09
-4.727191e-09 4.322787e-09 3.599299e-11 -8.872449e-10 -9.456180e-11 -2.028666e-10
3.053930e-09 -2.297865e-08 5.817496e-09 -5.998492e-09 8.119456e-10 -3.800614e-10
6.106108e-09 -3.073597e-08 5.943336e-09 -5.696249e-09 -2.285812e-10 -6.569704e-11
3.556886e-09 -2.426322e-08 4.568852e-09 -6.796317e-09 1.630475e-09 -1.165001e-10
5.966857e-09 -2.564463e-08 4.566116e-09 -6.963637e-09 2.096279e-10 -2.324968e-10
5.961940e-09 -2.789252e-08 5.332915e-09 -6.434861e-09 1.080512e-09 -7.415359e-11
4.528353e-09 -2.393371e-09 -7.848362e-10 1.830712e-09 1.095588e-10 5.492069e-10
-1.259973e-08 -1.049620e-08 1.560277e-09 -6.871900e-09 -3.964400e-09 -1.690031e-09
-7.684682e-09 -8.268024e-09 3.690059e-09 -1.011330e-08 -1.385424e-09 -1.844875e-09
-7.793650e-09 -1.140664e-08 1.040415e-09 -5.923152e-09 -2.233190e-09 -1.653883e-09
-1.181760e-08 -6.487082e-09 4.032245e-09 -4.925892e-09 -3.535389e-09 4.619636e-11
-1.201965e-08 -1.100600e-08 3.652870e-09 -7.354743e-09 -4.645314e-09 -5.702022e-10
-7.636418e-09 -1.948006e-08 -2.119381e-09 -8.840010e-09 -7.988052e-09 -2.664765e-09
-4.027832e-09 2.068984e-09 3.947056e-10 5.473610e-10 2.325016e-10 1.193654e-10
-8.621735e-09 6.799875e-09 -1.862956e-09 -6.855866e-09 -2.638369e-10 -6.779590e-10
-7.583279e-09 8.050025e-09 -2.489725e-09 -9.026058e-09 -1.452919e-09 1.094609e-09
-1.034497e-08 6.506420e-09 -2.652381e-09 -4.703496e-09 -9.373183e-10 6.786029e-10
-8.213029e-09 7.340596e-09 -2.752042e-09 -6.270903e-09 -3.678369e-10 -3.390921e-10
-8.649486e-09 9.218786e-09 -3.135336e-09 -8.329703e-09 -1.166413e-09 1.565092e-09
-1.430929e-07 -6.077963e-08 3.168410e-07 -1.210626e-08 -1.995761e-08 -1.162350e-09
-9.899311e-08 -1.367110e-08 2.479409e-07 -3.691787e-08 -4.454791e-08 6.615784e-09
-1.285876e-07 -6.776019e-08 3.129713e-07 4.779869e-09 -1.140214e-08 -2.721368e-09
-1.230710e-07 -1.630842e-08 3.943463e-07 1.981286e-08 -5.290473e-08 -2.189050e-08
-1.203792e-07 -4.354217e-08 3.120172e-07 -9.343135e-09 -2.116356e-08 3.337705e-09
-2.254768e-08 1.264373e-08 -2.785698e-09 1.144017e-08 7.830232e-09 -3.817547e-09
-2.423079e-08 1.313581e-08 -2.692015e-09 1.101389e-08 7.608885e-09 -3.735671e-09
-2.565947e-08 1.558802e-08 -5.567441e-09 2.332438e-08 1.034742e-08 -8.499943e-09
1.425642e-10 -1.162892e-10 3.217249e-11 2.181088e-09 3.305942e-10 -9.959145e-12
-2.545824e-08 2.431302e-08 -1.138801e-08 1.952656e-08 1.192162e-08 -1.216226e-08
-2.317508e-08 1.573207e-08 -2.780131e-09 8.878888e-09 6.762934e-09 -2.535409e-09
-2.094572e-08 2.392521e-08 -8.535694e-09 6.250134e-09 8.455214e-09 -6.206187e-09
6.175619e-09 -2.872617e-09 -8.168266e-10 3.923439e-09 -8.968884e-11 4.803057e-11
6.721453e-09 -3.611647e-09 -8.872796e-10 3.657988e-09 -1.710931e-10 -2.858234e-10
5.850677e-09 -2.886541e-09 -7.939267e-10 2.837964e-09 -1.305136e-10 -4.253642e-11
4.709392e-09 -2.378702e-09 -6.280647e-10 3.390253e-09 -6.684155e-11 1.238831e-11
2.816002e-09 -2.527130e-08 -3.932125e-09 4.810721e-09 -2.062243e-09 9.468138e-10
-1.847372e-09 -1.483708e-08 -4.260647e-09 6.026473e-09 -1.322341e-09 1.280429e-09
2.486886e-09 -1.831448e-08 -2.814533e-09 4.486427e-09 -1.455879e-09 1.219428e-10
-1.901827e-08 3.101242e-08 -1.401228e-08 -1.665519e-08 6.767289e-09 6.428695e-09
-1.530158e-09 -1.372004e-08 -1.022553e-08 8.559675e-09 -4.313654e-09 1.824299e-09
-1.688342e-09 -1.356846e-08 -6.641783e-09 8.462391e-09 -5.456489e-09 3.611495e-09
2.855332e-09 -1.950731e-08 -5.615422e-09 5.136746e-09 3.768705e-10 -7.728147e-10
5.464691e-09 -2.176772e-08 -4.732152e-09 7.491698e-09 -4.197661e-09 3.321742e-09
2.555115e-09 -2.771080e-08 -1.050252e-09 8.560613e-09 -5.685971e-09 3.790328e-09
3.830674e-09 -2.071647e-08 -5.811735e-09 8.641564e-09 -5.623455e-09 1.404318e-09
-7.421501e-09 3.029783e-09 1.395024e-09 7.544527e-10 5.099698e-11 7.703295e-12
-7.444488e-09 3.121093e-09 1.340459e-09 9.338382e-10 1.071532e-10 -2.093194e-10
-7.454252e-09 2.901851e-09 1.378421e-09 4.178432e-10 6.906287e-11 -6.722614e-11
4.712023e-09 -2.378605e-09 -6.924950e-10 3.390845e-09 7.934124e-11 4.420087e-10
3.841294e-09 -1.925081e-09 -6.010885e-10 2.614383e-09 1.246869e-10 -4.617264e-10
4.024810e-09 -1.825277e-09 -5.168119e-10 3.832326e-09 2.252485e-10 4.567178e-10
7.387025e-09 -3.612163e-09 -1.197918e-09 -2.176139e-09 -8.466561e-11 5.490852e-11
7.282546e-09 -3.871408e-09 -1.126625e-09 -2.349695e-09 -2.884708e-10 -2.946421e-11
8.952543e-09 -4.376038e-09 -1.250042e-09 -2.543183e-09 -1.836361e-10 1.858897e-10
7.437802e-09 -3.444665e-09 -1.270187e-09 -2.297487e-09 1.200132e-10 1.604239e-11
8.130588e-09 -4.180854e-09 -1.217521e-09 -1.053939e-09 1.924727e-11 -3.091951e-10
9.341740e-09 -4.839221e-09 -1.339399e-09 -1.255069e-09 -5.124781e-11 1.911651e-10
8.960056e-09 -5.073669e-09 -1.287196e-09 -1.568537e-09 -2.262679e-11 -4.249290e-11
3.735310e-08 -6.139370e-09 2.590649e-08 3.352574e-08 1.746439e-09 1.675788e-08
4.079855e-08 -2.757888e-08 9.877837e-08 3.490765e-08 9.714654e-09 1.683409e-08
4.664791e-08 -2.760004e-08 3.694433e-08 2.713923e-08 7.097222e-09 1.084901e-08
4.293239e-08 -1.504053e-08 4.570217e-08 3.115387e-08 5.979405e-09 1.935925e-08
1.019834e-08 -4.683506e-09 -1.622311e-09 -2.985525e-09 7.747380e-11 3.006240e-10
7.414590e-09 -3.836390e-09 -1.154589e-09 -3.682278e-09 4.069034e-11 3.737348e-10
9.476172e-09 -4.846052e-09 -1.495909e-09 -3.657349e-09 8.061041e-11 -1.961455e-10
8.156783e-09 -3.911039e-09 -1.218703e-09 -3.056359e-09 1.099916e-10 -1.708222e-10
-1.250358e-08 -9.953415e-10 -8.152101e-09 -1.009695e-08 -3.135667e-09 -1.023784e-09