# vtk DataFile Version 2.0
Simplicial Mesh Example
ASCII
DATASET UNSTRUCTURED_GRID
POINTS 9490 double
4.132646e+04 -3.761110e+05 -2.495947e+04
1.739130e+04 -4.000000e+05 0.000000e+00
1.424943e+04 -3.757412e+05 -2.497841e+04
3.478261e+04 -4.000000e+05 -2.478841e+04
3.431474e+04 -3.668361e+05 0.000000e+00
6.536071e+04 -3.800007e+05 -2.495579e+04
5.217391e+04 -4.000000e+05 0.000000e+00
5.217391e+04 -4.000000e+05 -5.000000e+04
6.848295e+04 -3.663208e+05 -5.000000e+04
1.739130e+04 -4.000000e+05 -5.000000e+04
3.422046e+04 -3.663210e+05 -5.000000e+04
-4.000000e+05 1.043476e+05 -2.478869e+04
-3.778006e+05 1.290431e+05 -2.559237e+04
-3.668348e+05 1.033122e+05 0.000000e+00
-3.750401e+05 1.075547e+05 -3.181274e+04
4.000000e+05 -3.652174e+05 -2.500000e+04
3.692598e+05 -3.333058e+05 -2.499312e+04
3.776504e+05 -3.747415e+05 -2.247043e+04
3.693733e+05 -3.529960e+05 0.000000e+00
-4.000000e+05 8.695652e+04 0.000000e+00
-3.760516e+05 8.212939e+04 -2.543564e+04
-3.482879e+05 1.253124e+05 -2.574623e+04
-3.665651e+05 9.874016e+04 -5.000000e+04
-3.495547e+05 9.060720e+04 -2.563270e+04
-3.071185e+05 -3.486990e+05 -2.261025e+04
-3.153762e+05 -3.243183e+05 -5.000000e+04
-3.287827e+05 -3.355430e+05 -2.504110e+04
-3.095113e+05 -3.153966e+05 -2.507638e+04
-2.962358e+05 -3.323448e+05 0.000000e+00
-3.357456e+05 -3.422369e+05 0.000000e+00
-2.772919e+05 -3.669732e+05 0.000000e+00
-2.934123e+05 -3.742563e+05 -2.511903e+04
-2.806419e+05 -3.463229e+05 -2.661752e+04
-3.140042e+05 -3.607419e+05 -5.000000e+04
-3.320497e+05 -3.703516e+05 -2.524928e+04
-3.224905e+05 6.841821e+04 -2.756000e+04
-3.000000e+05 4.234958e+04 -2.422604e+04
-3.000000e+05 5.362570e+04 -5.000000e+04
-3.000000e+05 7.749820e+04 -2.479801e+04
3.227610e+05 -1.685566e+05 -2.697912e+04
3.499303e+05 -1.919500e+05 -2.498446e+04
3.500600e+05 -1.567367e+05 -2.546429e+04
3.335574e+05 -1.858748e+05 0.000000e+00
3.000000e+05 -1.659466e+05 0.000000e+00
3.208602e+05 -1.947095e+05 -2.232217e+04
3.000000e+05 -1.806737e+05 -2.506219e+04
3.330650e+05 -1.842018e+05 -5.000000e+04
3.000000e+05 -1.978940e+05 -5.000000e+04
3.000000e+05 -1.638587e+05 -5.000000e+04
-1.949782e+05 -3.787045e+05 -2.503133e+04
-1.713812e+05 -3.663209e+05 -5.000000e+04
-1.725141e+05 -3.772415e+05 -2.530126e+04
-1.913043e+05 -4.000000e+05 -5.000000e+04
-1.972219e+05 -3.510331e+05 -2.499278e+04
-1.739069e+05 -4.000000e+05 -2.478809e+04
-1.716829e+05 -3.668361e+05 0.000000e+00
-1.913043e+05 -4.000000e+05 0.000000e+00
1.358880e+05 -3.243044e+05 -2.504137e+04
1.166322e+05 -3.000000e+05 -2.516475e+04
1.497984e+05 -3.000000e+05 -2.516553e+04
1.333333e+05 -3.000000e+05 -5.000000e+04
1.825802e+05 3.751615e+05 -2.720292e+04
2.119132e+05 3.796036e+05 -2.524922e+04
2.061857e+05 3.668333e+05 0.000000e+00
1.947422e+05 3.503722e+05 -2.524152e+04
1.565217e+05 4.000000e+05 0.000000e+00
1.528807e+05 3.759790e+05 -2.499953e+04
1.739069e+05 4.000000e+05 -2.478809e+04
1.716839e+05 3.668365e+05 0.000000e+00
1.913043e+05 4.000000e+05 0.000000e+00
1.565217e+05 4.000000e+05 -5.000000e+04
1.713714e+05 3.663108e+05 -5.000000e+04
1.613560e+05 3.500277e+05 -2.506640e+04
-8.982230e+04 3.792244e+05 -2.494679e+04
-6.535746e+04 3.800015e+05 -2.495585e+04
-6.848071e+04 3.663195e+05 -5.000000e+04
-8.695652e+04 4.000000e+05 -5.000000e+04
-6.956522e+04 4.000000e+05 -2.478801e+04
-9.132937e+04 3.518806e+05 -2.497956e+04
-8.695652e+04 4.000000e+05 0.000000e+00
-6.863978e+04 3.668364e+05 0.000000e+00
8.983161e+04 -3.792230e+05 -2.494676e+04
8.695652e+04 -4.000000e+05 -5.000000e+04
6.956522e+04 -4.000000e+05 -2.478801e+04
8.695652e+04 -4.000000e+05 0.000000e+00
9.134075e+04 -3.518804e+05 -2.497894e+04
6.864043e+04 -3.668360e+05 0.000000e+00
-1.485035e+05 -3.773486e+05 -2.721498e+04
-1.630495e+05 -3.485427e+05 -2.521974e+04
-1.185212e+05 -3.761066e+05 -2.504756e+04
-1.217391e+05 -4.000000e+05 -5.000000e+04
-1.370985e+05 -3.663236e+05 -5.000000e+04
-1.217391e+05 -4.000000e+05 0.000000e+00
-1.391294e+05 -4.000000e+05 -2.478846e+04
-1.373218e+05 -3.668365e+05 0.000000e+00
-1.565217e+05 -4.000000e+05 0.000000e+00
-1.276844e+05 -3.500075e+05 -2.505733e+04
-3.784905e+05 1.568709e+05 -2.476156e+04
-3.664298e+05 1.337587e+05 -5.000000e+04
-3.514457e+05 1.599418e+05 -2.483113e+04
-4.000000e+05 1.565217e+05 -5.000000e+04
-4.000000e+05 1.391294e+05 -2.478846e+04
-3.668349e+05 1.375908e+05 0.000000e+00
-4.000000e+05 1.565217e+05 0.000000e+00
3.668265e+05 -1.714683e+05 0.000000e+00
4.000000e+05 -1.913043e+05 0.000000e+00
4.000000e+05 -1.739069e+05 -2.478809e+04
4.000000e+05 -1.565217e+05 0.000000e+00
3.763528e+05 1.812702e+05 -2.493822e+04
4.000000e+05 1.565217e+05 0.000000e+00
3.764050e+05 1.528124e+05 -2.490916e+04
4.000000e+05 1.739130e+05 -2.478510e+04
3.668383e+05 1.722952e+05 0.000000e+00
3.797466e+05 2.119345e+05 -2.497186e+04
4.000000e+05 1.913043e+05 -5.000000e+04
3.662642e+05 2.068445e+05 -5.000000e+04
3.507120e+05 1.619053e+05 -2.490325e+04
3.662844e+05 1.729597e+05 -5.000000e+04
4.000000e+05 1.565217e+05 -5.000000e+04
3.776488e+05 -7.900637e+04 -2.735718e+04
3.762845e+05 -4.901174e+04 -2.508786e+04
3.663605e+05 -6.676216e+04 -5.000000e+04
3.502306e+05 -5.807827e+04 -2.511783e+04
4.000000e+05 -5.217391e+04 -5.000000e+04
3.773063e+05 -1.038824e+05 -2.578879e+04
4.000000e+05 -8.695652e+04 0.000000e+00
3.668372e+05 -1.026508e+05 0.000000e+00
4.000000e+05 -5.217391e+04 0.000000e+00
4.000000e+05 -6.956519e+04 -2.478879e+04
3.668380e+05 -6.826645e+04 0.000000e+00
4.000000e+05 -1.043476e+05 -2.478869e+04
-1.666667e+05 -3.000000e+05 -5.000000e+04
-1.833333e+05 -3.000000e+05 -2.518468e+04
-1.933582e+05 -3.216521e+05 -2.503520e+04
-1.657267e+05 -3.213415e+05 -2.506307e+04
-1.666667e+05 -3.000000e+05 0.000000e+00
3.334882e+05 -2.202831e+05 0.000000e+00
3.000000e+05 -1.994599e+05 0.000000e+00
3.000000e+05 -2.085861e+05 -2.501244e+04
-1.859359e+05 -3.331067e+05 -5.000000e+04
-1.862587e+05 -3.335758e+05 0.000000e+00
-4.132523e+04 3.761107e+05 -2.495957e+04
-3.478261e+04 4.000000e+05 -2.478841e+04
-5.217391e+04 4.000000e+05 -5.000000e+04
-1.739130e+04 4.000000e+05 -5.000000e+04
-1.424890e+04 3.757408e+05 -2.497844e+04
-3.421938e+04 3.663190e+05 -5.000000e+04
-5.217391e+04 4.000000e+05 0.000000e+00
-1.739130e+04 4.000000e+05 0.000000e+00
-3.431405e+04 3.668365e+05 0.000000e+00
-2.739007e+04 3.505180e+05 -2.498776e+04
-1.739130e+05 4.000000e+05 -2.478510e+04
-1.528672e+05 3.759826e+05 -2.500255e+04
-1.716148e+05 3.668263e+05 0.000000e+00
-1.825315e+05 3.751689e+05 -2.721318e+04
-1.913043e+05 4.000000e+05 0.000000e+00
-2.059314e+05 3.667832e+05 0.000000e+00
-2.118669e+05 3.796033e+05 -2.526514e+04
-1.612599e+05 3.500460e+05 -2.507149e+04
-1.913043e+05 4.000000e+05 -5.000000e+04
-2.056558e+05 3.663226e+05 -5.000000e+04
-1.712892e+05 3.663242e+05 -5.000000e+04
-1.565217e+05 4.000000e+05 -5.000000e+04
3.507710e+05 -3.071241e+05 -1.983709e+04
3.472371e+05 -2.783609e+05 -2.630278e+04
3.316724e+05 -2.967750e+05 0.000000e+00
3.666108e+05 -2.775848e+05 0.000000e+00
3.309559e+05 -3.255688e+05 -2.698212e+04
3.397681e+05 -3.369212e+05 0.000000e+00
3.744093e+05 -2.934608e+05 -2.492539e+04
3.303054e+05 -2.869393e+05 -5.000000e+04
3.606270e+05 -3.135064e+05 -5.000000e+04
-3.238506e+05 1.781151e+05 -2.284516e+04
-3.335738e+05 1.866432e+05 0.000000e+00
-3.000000e+05 1.673499e+05 0.000000e+00
-3.000000e+05 2.005124e+05 0.000000e+00
-3.242363e+05 2.019112e+05 -2.479758e+04
-3.335722e+05 1.528704e+05 0.000000e+00
-3.219833e+05 1.550144e+05 -2.418889e+04
-3.331119e+05 1.814444e+05 -5.000000e+04
-3.500623e+05 1.947691e+05 -2.492389e+04
3.000000e+05 -1.480457e+05 -2.518612e+04
3.070808e+05 3.546107e+05 -1.714572e+04
2.838715e+05 3.432764e+05 -2.626473e+04
2.962288e+05 3.323792e+05 0.000000e+00
2.772894e+05 3.669850e+05 0.000000e+00
3.214547e+05 3.369143e+05 -2.636251e+04
3.136723e+05 3.607135e+05 -5.000000e+04
2.935138e+05 3.747013e+05 -2.499119e+04
3.357389e+05 3.423035e+05 0.000000e+00
3.310854e+05 3.708053e+05 -2.520548e+04
-3.303425e+05 2.864208e+05 -5.000000e+04
-3.469504e+05 2.817468e+05 -2.677742e+04
-3.300427e+05 3.281790e+05 -2.631692e+04
-3.606526e+05 3.133330e+05 -5.000000e+04
-3.538099e+05 3.084519e+05 -1.787405e+04
-3.749470e+05 2.933940e+05 -2.493585e+04
-3.716865e+05 3.330494e+05 -2.604840e+04
-3.422611e+05 3.357632e+05 0.000000e+00
-3.323575e+05 2.962961e+05 0.000000e+00
-3.669772e+05 2.773495e+05 0.000000e+00
-3.208683e+05 1.285984e+05 -2.543766e+04
-3.000000e+05 1.341874e+05 0.000000e+00
-3.000000e+05 1.457374e+05 -2.479770e+04
-3.331557e+05 1.463574e+05 -5.000000e+04
-3.335717e+05 1.191216e+05 0.000000e+00
-3.000000e+05 1.116890e+05 -2.479816e+04
3.750985e+05 1.731082e+04 -2.495385e+04
3.668370e+05 3.487991e+04 0.000000e+00
3.766226e+05 5.120408e+04 -2.491509e+04
3.486553e+05 3.094323e+04 -2.470062e+04
3.664079e+05 2.208090e+03 -5.000000e+04
3.755591e+05 -1.521008e+04 -2.489784e+04
3.365423e+05 9.969610e+02 -2.491966e+04
3.668382e+05 4.985393e+02 0.000000e+00
4.000000e+05 8.858707e-04 -2.478866e+04
4.000000e+05 1.739130e+04 0.000000e+00
3.664904e+05 3.662308e+04 -5.000000e+04
4.000000e+05 1.739130e+04 -5.000000e+04
4.000000e+05 3.478261e+04 -2.478841e+04
3.241835e+05 -1.338846e+05 -2.511108e+04
3.331162e+05 -1.156285e+05 -5.000000e+04
3.331063e+05 -1.499070e+05 -5.000000e+04
3.000000e+05 -1.298234e+05 -5.000000e+04
3.000000e+05 -1.142814e+05 -2.518156e+04
3.501925e+05 -1.229656e+05 -2.536930e+04
3.335703e+05 -1.518628e+05 0.000000e+00
3.335746e+05 -1.178848e+05 0.000000e+00
3.000000e+05 -1.324332e+05 0.000000e+00
-1.185180e+05 -3.335740e+05 0.000000e+00
-1.333333e+05 -3.000000e+05 0.000000e+00
-1.000000e+05 -3.000000e+05 0.000000e+00
-1.166667e+05 -3.000000e+05 -2.516967e+04
3.767701e+05 8.545747e+04 -2.498937e+04
4.000000e+05 8.695652e+04 -5.000000e+04
3.664910e+05 7.093362e+04 -5.000000e+04
3.664147e+05 1.050627e+05 -5.000000e+04
4.000000e+05 8.695652e+04 0.000000e+00
3.668311e+05 6.925743e+04 0.000000e+00
4.000000e+05 6.956522e+04 -2.478801e+04
3.532003e+05 6.143720e+04 -2.460611e+04
3.529343e+05 9.380645e+04 -2.566405e+04
-6.874474e+04 -3.242435e+05 -2.504036e+04
[...]
CELL_DATA 20058
SCALARS total_strain double 6
LOOKUP_TABLE default
-5.424843e-10 2.194180e-09 -2.465318e-10 -3.540324e-09 -5.963976e-11 -2.922109e-10
-2.490141e-09 2.677457e-09 -7.775602e-11 -2.633086e-09 -3.414548e-10 2.760436e-11
8.865877e-10 1.213744e-09 -5.143597e-10 -3.057333e-09 -2.678620e-10 -4.127118e-10
-1.079137e-11 1.451382e-09 -3.173588e-10 -3.320938e-09 -2.082386e-10 1.712561e-10
-1.891427e-09 2.482579e-09 -2.499210e-10 -2.444228e-09 -2.375444e-10 -5.560952e-11
-1.105068e-09 1.992423e-09 -2.827208e-10 -3.320519e-09 -3.900102e-10 -1.426773e-10
-1.728098e-10 1.613044e-09 -2.966389e-10 -2.726719e-09 -2.686843e-10 -1.173502e-10
-2.642883e-09 -2.289319e-08 4.984767e-09 1.184936e-08 1.429639e-09 9.557797e-11
-7.377997e-09 -2.166382e-08 6.310930e-09 1.576015e-08 3.677343e-09 -1.727778e-10
-3.005070e-09 -2.219964e-08 6.197408e-09 1.117082e-08 2.624281e-09 -2.364220e-10
-8.522549e-09 -1.356899e-08 6.062189e-09 1.141532e-08 2.387684e-09 -7.396906e-10
-6.753728e-09 -2.043135e-08 5.811223e-09 1.380934e-08 3.658161e-09 -1.252272e-09
-4.371403e-09 -2.059891e-08 6.208436e-09 1.221448e-08 1.653948e-09 2.178274e-10
1.017389e-08 -5.489053e-09 -1.316604e-09 -1.640074e-10 2.688152e-11 1.616919e-10
9.286118e-09 -5.674310e-09 -1.379791e-09 2.303891e-10 -2.843607e-12 -1.431093e-10
9.401503e-09 -5.527086e-09 -1.258631e-09 3.662981e-10 1.524668e-10 -2.047407e-11
-2.064141e-09 -1.791104e-08 5.216142e-09 -4.843955e-09 -3.114535e-10 -1.089814e-09
-7.081379e-09 -6.213178e-09 4.376504e-10 1.825053e-09 -2.437966e-10 1.710234e-10
-1.288556e-09 -1.820741e-08 5.369208e-09 -2.903606e-09 -6.878408e-11 2.188045e-10
6.245660e-11 -1.791455e-08 5.251488e-09 -4.844512e-09 -3.220211e-10 -7.134746e-10
1.534691e-09 -1.827649e-08 5.569355e-09 -2.600320e-09 -1.032371e-10 -5.801761e-10
9.236036e-10 -2.181244e-08 5.573347e-09 -4.072249e-09 -1.140145e-10 -5.820929e-10
-4.515874e-09 4.302227e-09 1.309797e-10 -1.962624e-09 -2.055673e-10 -1.420278e-10
-7.749559e-09 2.760587e-08 -1.573686e-08 -4.538751e-09 7.942920e-09 -1.047068e-08
-3.656458e-09 3.624477e-09 1.280007e-10 -1.681486e-09 -1.376147e-10 9.334178e-11
-5.558400e-09 4.422752e-09 1.997966e-10 -1.481438e-09 -7.597622e-11 -2.254155e-10
-5.261057e-09 4.366796e-09 2.473532e-10 -1.392098e-09 -1.202412e-10 -1.907390e-10
-4.437289e-09 4.414414e-09 2.506360e-10 -1.110016e-09 -7.046830e-11 -9.910894e-11
-4.737063e-09 4.390607e-09 2.285399e-10 -1.126814e-09 -7.430079e-11 1.255307e-10
-8.940992e-10 2.353419e-09 -4.330174e-10 -2.235118e-09 -4.466811e-10 -3.215839e-11
-1.536762e-10 1.316941e-09 -2.822267e-10 -1.455972e-09 -5.703216e-11 1.091931e-10
-7.412071e-10 9.404848e-10 -4.568044e-10 -2.440134e-09 -1.311752e-10 1.059422e-10
7.891836e-09 -2.824649e-08 -4.392664e-09 7.107739e-09 -7.051615e-09 1.222307e-09
9.153579e-09 -2.689464e-08 -3.989888e-09 4.829612e-09 -2.371654e-09 1.038116e-09
7.800167e-09 -2.913042e-08 -3.285577e-09 6.779575e-09 -3.711543e-09 1.483222e-09
7.790977e-09 -4.304400e-09 -1.212504e-09 -1.602079e-09 -1.231748e-10 5.530524e-10
8.461024e-09 -4.133321e-09 -1.248596e-09 -1.376637e-09 -6.929902e-12 1.594316e-10
7.375503e-09 -3.794165e-09 -1.092003e-09 -1.852103e-09 -2.010639e-10 1.428989e-10
5.470438e-09 -3.222179e-09 -1.078253e-09 -1.706654e-09 -1.054251e-10 -6.290957e-11
-5.565321e-09 3.187229e-09 9.209660e-10 4.500913e-10 7.790690e-11 4.113763e-10
7.907954e-09 -4.099097e-09 -1.164655e-09 -1.331656e-09 -1.592680e-10 5.623146e-10
2.602224e-10 3.205097e-09 -3.286009e-08 1.004644e-08 -1.295210e-08 8.861249e-09
6.383061e-09 -3.123359e-09 -1.209446e-09 -1.776709e-09 -3.169635e-11 -5.337508e-11
-7.860275e-09 3.063637e-09 1.524692e-09 5.216643e-10 1.989555e-10 -1.636773e-10
-7.918163e-09 3.242490e-09 1.442035e-09 4.403260e-10 4.706813e-11 -1.503669e-10
-7.637202e-09 3.176530e-09 1.343625e-09 3.602500e-10 1.136279e-10 1.831200e-12
-8.018776e-09 3.470696e-09 1.432773e-09 5.608318e-10 1.698448e-10 -1.967588e-10
-8.103473e-09 3.586273e-09 1.402952e-09 3.214544e-10 -7.970097e-12 -3.533981e-12
4.987470e-08 -1.561712e-09 -1.134413e-09 1.987587e-08 5.300923e-09 4.726328e-09
1.081771e-08 -3.994641e-08 8.436428e-09 9.470225e-10 2.217469e-16 -1.571747e-10
6.675481e-08 -1.343975e-08 1.093536e-09 1.836072e-08 4.298431e-09 1.710472e-08
3.263055e-08 -1.296213e-09 -1.059341e-08 2.057445e-08 -2.263357e-09 8.923439e-10
4.872259e-08 -1.577845e-09 -2.982884e-09 2.083419e-08 7.447735e-09 8.215846e-09
5.527080e-08 -2.934256e-09 -2.881866e-09 2.880096e-08 7.529242e-09 1.555238e-08
6.999413e-09 1.704192e-08 -4.371780e-08 6.326664e-09 -5.457569e-09 3.094851e-09
6.526166e-08 -2.128661e-08 2.073947e-09 -7.959063e-09 -2.769471e-10 4.668972e-09
6.338857e-08 -3.017065e-08 9.662702e-09 1.708931e-09 2.772714e-10 1.317113e-09
6.215041e-08 -2.548970e-08 -1.290212e-10 -4.341044e-09 3.083082e-09 1.737845e-09
6.479665e-08 -2.879135e-08 7.520984e-09 -6.249708e-09 -1.506496e-09 1.045240e-09
6.477048e-08 -3.029609e-08 7.551198e-09 2.142943e-10 1.687846e-09 1.069294e-09
6.596678e-08 -2.828551e-08 1.028411e-08 -5.038826e-09 7.210822e-10 2.887667e-09
4.469338e-08 -1.029347e-08 8.556282e-09 -2.287582e-08 -5.713470e-09 1.259376e-08
3.473310e-08 -8.140090e-09 9.970639e-09 -1.827449e-08 -4.056042e-09 7.648620e-09
3.464110e-08 -6.533431e-09 2.953954e-09 -1.813641e-08 -9.505693e-10 9.078400e-09
6.825788e-08 -2.479216e-08 9.837827e-09 -1.500892e-08 -1.090077e-09 2.505813e-08
6.592069e-08 -2.469410e-08 3.409180e-08 -1.503430e-08 -2.698444e-09 2.324122e-08
4.889731e-08 -1.286333e-08 8.745320e-09 -2.243105e-08 -6.529528e-09 6.588899e-09
4.856720e-08 -1.527442e-08 1.598860e-08 -2.347747e-08 -8.047518e-09 4.921661e-09
3.992834e-10 1.976850e-08 -8.113043e-09 -1.052563e-08 1.009702e-09 -4.507739e-09
2.060315e-08 1.932938e-08 -3.698420e-09 -1.436346e-08 -4.378430e-10 5.061036e-09
2.993001e-08 5.808900e-09 -2.181633e-09 -1.400785e-08 -2.285791e-09 7.126968e-09
2.543674e-09 1.248511e-08 -2.674784e-09 -8.360570e-09 -6.715069e-10 2.235904e-11
1.636942e-08 4.727953e-09 -5.011402e-09 -1.006766e-08 -4.664843e-10 9.269166e-10
-3.819075e-09 3.831977e-09 6.843948e-11 -1.124941e-09 -1.293398e-10 1.088511e-10
-3.329724e-09 3.682758e-09 1.536660e-11 -1.462922e-09 -2.451332e-10 -8.750692e-11
-2.027233e-09 3.067039e-09 -1.807383e-10 -1.483971e-09 -2.085568e-10 -1.285534e-10
-3.216838e-09 2.939564e-09 -9.288748e-11 -1.007816e-09 -2.393048e-10 -1.107849e-10
-4.227129e-09 2.426578e-09 5.611027e-10 1.443812e-10 1.599734e-10 -8.521009e-11
-4.853254e-09 2.856817e-09 6.123322e-10 3.891110e-11 1.152125e-10 4.535261e-11
-2.760937e-09 1.704996e-08 -2.835235e-08 4.121541e-09 -3.060593e-09 2.118467e-09
-5.139450e-09 2.900224e-09 6.801577e-10 3.499683e-10 1.849101e-10 2.118125e-10
-4.858348e-09 2.943475e-09 5.851641e-10 5.454310e-10 1.463705e-10 -4.204503e-11
-4.541581e-09 2.596946e-09 5.966494e-10 9.322529e-10 2.242939e-10 1.760230e-10
-4.093440e-09 2.100521e-09 5.649168e-10 5.020557e-10 1.218012e-10 2.266942e-11
-1.794633e-08 2.222748e-08 6.040883e-09 7.043836e-09 -5.072830e-09 -1.249018e-09
-4.386244e-09 3.055763e-09 5.833347e-10 8.462999e-10 1.238227e-10 -5.637713e-11
-8.249155e-09 1.485211e-08 -2.060449e-08 2.851091e-10 -3.370046e-09 3.802747e-09
-8.792110e-09 -1.682856e-08 5.330464e-09 8.649326e-09 1.622013e-09 -5.880021e-10
-1.156717e-08 -1.369769e-08 5.942161e-09 6.770173e-09 8.330127e-10 -5.283447e-10
-1.154196e-08 -1.201192e-08 5.133220e-09 7.135165e-09 1.604643e-09 -6.113453e-10
-1.327954e-08 -1.404442e-08 6.007971e-09 9.590812e-09 2.596558e-09 -2.284328e-10
-8.486930e-09 -1.339218e-08 3.119109e-09 1.126773e-08 3.215935e-09 -6.580487e-10
-2.633226e-09 3.144182e-09 -1.478426e-10 -2.207390e-09 -2.181384e-10 -2.332996e-10
-3.326056e-09 3.547071e-09 3.209566e-11 -1.437755e-09 -1.869876e-10 -1.094961e-10
-3.470255e-09 3.348482e-09 1.083267e-11 -9.236976e-10 6.697228e-11 -3.199618e-11
-2.677162e-09 2.795224e-09 -9.049206e-11 -1.340404e-09 -2.777938e-10 -1.300590e-10
-2.523139e-09 2.830832e-09 -1.477987e-10 -2.244774e-09 -4.715250e-11 -3.163063e-10
-2.901461e-09 3.184491e-09 -1.464695e-11 -1.348848e-09 -2.999156e-12 -2.988723e-10
-1.866253e-08 3.864466e-09 9.127679e-10 -8.771817e-09 -8.091770e-09 -2.320106e-09
-1.912497e-08 1.100113e-08 -2.721663e-09 -5.594303e-09 -5.653090e-09 -1.646106e-09
-1.742865e-08 -4.717293e-10 9.378720e-12 -8.197764e-09 -8.119051e-09 -2.733178e-09
-1.735458e-08 3.960604e-09 -1.679083e-09 -8.414230e-09 -8.092339e-09 -2.082937e-09
-1.851101e-08 7.186413e-09 -4.058669e-09 -8.889026e-09 -7.922061e-09 -3.397297e-09
6.658224e-08 -2.007024e-08 -6.842965e-09 -1.060301e-09 2.561064e-10 4.545477e-09
6.663116e-08 -2.005825e-08 -1.157388e-09 -1.426380e-09 8.066289e-10 2.502449e-09
1.169322e-08 1.218153e-08 -5.521806e-09 2.107326e-09 4.920952e-09 1.153641e-10
7.357238e-08 -1.980487e-08 -8.938945e-09 -2.753241e-09 -6.199507e-10 9.641364e-09
7.284862e-08 -1.430964e-08 -1.175833e-08 5.592768e-09 4.030492e-09 1.292527e-08
6.280531e-08 -1.242661e-08 -3.318970e-09 -5.557380e-11 9.683810e-10 5.030606e-09
6.033090e-08 -1.648562e-08 -5.068319e-09 3.917102e-09 -1.446598e-10 5.474664e-09
-1.394732e-08 -8.939601e-09 4.242879e-09 3.044145e-09 2.535044e-09 -1.217733e-09
-1.196703e-08 -9.143979e-09 1.595314e-09 5.647875e-09 1.938484e-09 -1.263981e-09
-1.176951e-08 -8.853529e-09 4.584535e-09 6.570743e-09 3.660508e-09 -2.361192e-10
-2.147856e-08 2.212713e-08 -1.135803e-10 5.926767e-09 1.283687e-09 2.512175e-09
-8.875943e-09 -1.678294e-08 4.737453e-09 7.271230e-09 2.185090e-09 -9.199448e-10
-1.163734e-08 -1.348068e-08 5.304978e-09 3.546960e-09 2.078641e-09 2.926014e-10
-5.286414e-09 2.891497e-09 7.096141e-10 7.325531e-10 1.251748e-10 2.150374e-10
-5.567096e-09 3.203420e-09 7.239940e-10 5.707976e-10 7.913137e-11 -1.018852e-12
-3.960480e-09 2.141846e-09 5.713860e-10 4.032872e-10 1.907279e-10 -3.049307e-10
-6.186207e-09 3.290694e-09 7.339396e-10 3.800220e-10 1.617924e-10 -1.687674e-10
-4.917715e-09 2.849020e-09 7.366319e-10 8.136576e-10 9.185896e-11 -2.456799e-10
-5.285029e-09 2.990309e-09 8.059198e-10 9.654338e-10 1.916442e-10 -1.134399e-10
-4.173241e-09 2.551650e-08 -2.160848e-08 -2.730130e-08 4.115242e-09 6.118028e-09
-1.446043e-09 2.796355e-08 3.546103e-09 -2.991730e-08 2.637768e-09 3.860696e-09
1.688910e-09 2.108801e-08 4.382582e-09 -2.940214e-08 4.633162e-09 9.841783e-10
-2.612225e-09 3.308739e-09 6.703260e-11 -4.840095e-09 2.966527e-11 1.496325e-10
9.580542e-09 1.480936e-08 2.389416e-09 -3.229521e-08 4.487648e-09 6.460839e-10
3.555215e-10 2.030267e-08 1.847212e-09 -3.025329e-08 3.056025e-09 3.823282e-09
8.018212e-09 -4.347580e-09 -1.237551e-09 -9.288763e-10 -1.805962e-10 -5.829115e-12
8.677326e-09 -4.793520e-09 -1.219876e-09 -9.369918e-10 -7.271123e-11 1.660108e-10
7.044161e-09 -3.974043e-09 -1.131203e-09 -1.737579e-09 -1.042173e-10 -2.298329e-10
8.880080e-09 -4.944132e-09 -1.286068e-09 -1.332547e-09 -8.739609e-11 -3.670162e-11
8.566552e-09 -3.950561e-09 -1.243214e-09 -1.897262e-09 -2.943432e-10 6.834105e-11
8.355794e-09 -4.894193e-09 -1.173519e-09 -1.182202e-09 -2.287780e-10 6.782083e-11
-1.065097e-08 5.361344e-09 -1.920593e-09 -2.473204e-09 -4.499157e-10 -3.693197e-10
-1.038944e-08 3.618896e-09 9.038503e-11 -1.995289e-09 -2.615752e-10 -3.246485e-10
-1.047983e-08 4.934351e-09 -7.711960e-10 -2.802202e-09 -9.546715e-10 1.744487e-10
-1.056081e-08 3.585150e-09 5.392966e-10 -2.073704e-09 -1.420850e-10 -1.442029e-10
9.566977e-09 -5.341338e-09 -1.337567e-09 1.916553e-10 3.617945e-11 1.742029e-11
9.453053e-09 -5.402924e-09 -1.300487e-09 3.712535e-10 2.343051e-11 1.821854e-10
8.836903e-09 -5.228994e-09 -1.301707e-09 8.979677e-10 -1.578551e-11 -8.574647e-11
1.005288e-08 -5.726021e-09 -1.405704e-09 1.058056e-09 -6.850354e-12 -1.933363e-10
1.018804e-08 -5.874925e-09 -1.325867e-09 4.414504e-10 1.575428e-10 1.449401e-10
9.678371e-09 -5.479457e-09 -1.349180e-09 1.650644e-10 -5.809461e-11 1.383109e-10
9.398430e-09 -5.418391e-09 -1.318942e-09 -8.717302e-11 2.888609e-11 1.185270e-10
9.628994e-09 -5.640959e-09 -1.344559e-09 1.328555e-10 9.800963e-11 8.955947e-12
1.068595e-08 -5.653614e-09 -1.297025e-09 9.492507e-11 7.437662e-11 2.855417e-10
-1.342728e-09 3.144627e-08 -4.297209e-08 -3.146498e-09 -5.171909e-09 3.442209e-09
-4.036279e-09 2.394626e-09 6.012708e-10 6.093637e-10 -2.686984e-11 7.066192e-11
-4.329208e-09 2.431979e-09 6.329408e-10 1.425133e-09 1.783531e-10 -2.154561e-10
-4.144693e-09 2.222025e-09 5.055059e-10 1.383353e-09 9.776612e-13 -3.164993e-10
-4.567157e-09 2.557464e-09 6.243481e-10 8.270358e-10 2.495337e-12 -2.726022e-10
-5.149204e-09 2.774811e-09 6.008984e-10 1.117455e-09 1.146632e-10 -8.268408e-11
-4.887875e-09 2.809231e-09 6.845586e-10 9.732505e-10 1.471396e-10 -9.224127e-11
4.314235e-09 -1.007894e-08 -2.268229e-08 -2.370059e-08 4.466710e-09 1.004631e-09
-8.897711e-09 6.155989e-09 -1.076109e-08 -2.057058e-08 4.479732e-09 3.185748e-09
-1.755196e-08 1.048965e-08 -5.123797e-09 -9.286734e-09 2.910228e-11 2.564954e-10
-8.630361e-09 -1.964190e-09 -1.085291e-08 -2.053475e-08 3.302657e-09 3.336132e-09
2.551074e-10 -8.056471e-09 -1.561286e-08 -2.297323e-08 6.194507e-10 -1.416350e-09
-5.407844e-09 -3.396730e-09 -1.198021e-08 -2.133509e-08 4.420906e-09 3.548910e-09
1.370577e-08 -2.919766e-08 -1.383356e-08 -1.192330e-08 -7.971678e-09 -1.178434e-09
9.152343e-09 -2.972135e-08 -8.634198e-09 -7.769076e-09 -6.258686e-09 -1.341467e-09
9.332374e-09 -2.501897e-08 -1.334190e-08 -9.056788e-09 -7.003860e-09 -2.247540e-10
1.047838e-08 -2.162674e-08 -2.051642e-08 -1.400811e-08 -5.203569e-09 -2.188788e-09
9.351422e-09 -2.492556e-08 -7.872949e-09 -9.012887e-09 -3.084583e-09 1.115102e-09
5.971200e-09 -2.352688e-08 -1.135866e-08 -9.378989e-09 -3.664245e-09 -2.331996e-09
-4.900036e-10 1.808663e-09 -3.665868e-10 -2.756883e-09 -3.981611e-10 -2.273892e-10
-5.733831e-10 1.609606e-09 -2.566616e-10 -1.678552e-09 7.013945e-12 -1.154017e-10
6.966434e-10 1.315762e-09 -4.166942e-10 -2.185019e-09 -6.621237e-11 1.594475e-11
7.677032e-10 7.729213e-10 -5.402878e-10 -2.563183e-09 -3.278815e-10 -1.954938e-10
-1.581397e-08 1.058146e-09 -7.863479e-09 -8.188039e-09 -5.361477e-09 -2.883478e-09
-1.602738e-08 7.298088e-09 -9.932163e-09 -7.404250e-09 -5.430199e-09 -1.504309e-09
-1.691844e-08 4.452158e-09 -5.471356e-09 -5.505713e-09 -2.451349e-09 -1.275873e-09
-1.344782e-08 2.371964e-09 -7.894504e-09 -9.182994e-09 -1.692484e-10 3.168710e-10
-4.015200e-09 4.211391e-09 3.610667e-11 -4.110844e-10 -1.078313e-10 -7.793412e-11
-3.721328e-09 3.630587e-09 1.393330e-11 -1.268307e-09 -2.541403e-10 -4.753148e-11
-3.878879e-09 4.205841e-09 -1.971301e-11 -7.651433e-10 -1.027772e-10 -1.567967e-10
-9.208471e-09 2.117128e-08 -3.495268e-08 -1.565856e-08 -2.868700e-09 -2.002123e-09
-4.727191e-09 4.322788e-09 3.599299e-11 -8.872458e-10 -9.456269e-11 -2.028675e-10
3.053930e-09 -2.297865e-08 5.817496e-09 -5.998490e-09 8.119443e-10 -3.800619e-10
6.106109e-09 -3.073598e-08 5.943335e-09 -5.696250e-09 -2.285805e-10 -6.569671e-11
3.556885e-09 -2.426322e-08 4.568853e-09 -6.796318e-09 1.630478e-09 -1.165008e-10
5.966858e-09 -2.564463e-08 4.566117e-09 -6.963639e-09 2.096283e-10 -2.324965e-10
5.961941e-09 -2.789252e-08 5.332917e-09 -6.434864e-09 1.080514e-09 -7.415314e-11
4.528352e-09 -2.393371e-09 -7.848362e-10 1.830713e-09 1.095593e-10 5.492069e-10
-1.259973e-08 -1.049620e-08 1.560278e-09 -6.871899e-09 -3.964401e-09 -1.690030e-09
-7.684684e-09 -8.268024e-09 3.690060e-09 -1.011330e-08 -1.385425e-09 -1.844875e-09
-7.793650e-09 -1.140664e-08 1.040415e-09 -5.923151e-09 -2.233190e-09 -1.653883e-09
-1.181760e-08 -6.487083e-09 4.032245e-09 -4.925894e-09 -3.535390e-09 4.619769e-11
-1.201965e-08 -1.100600e-08 3.652870e-09 -7.354744e-09 -4.645314e-09 -5.702016e-10
-7.636420e-09 -1.948006e-08 -2.119382e-09 -8.840010e-09 -7.988055e-09 -2.664764e-09
-4.027836e-09 2.068986e-09 3.947043e-10 5.473617e-10 2.325020e-10 1.193672e-10
-8.621736e-09 6.799876e-09 -1.862956e-09 -6.855866e-09 -2.638360e-10 -6.779595e-10
-7.583280e-09 8.050024e-09 -2.489727e-09 -9.026060e-09 -1.452918e-09 1.094608e-09
-1.034497e-08 6.506420e-09 -2.652381e-09 -4.703495e-09 -9.373170e-10 6.786034e-10
-8.213028e-09 7.340596e-09 -2.752041e-09 -6.270903e-09 -3.678366e-10 -3.390932e-10
-8.649486e-09 9.218788e-09 -3.135337e-09 -8.329704e-09 -1.166413e-09 1.565092e-09
-1.430929e-07 -6.077963e-08 3.168410e-07 -1.210626e-08 -1.995761e-08 -1.162351e-09
-9.899311e-08 -1.367110e-08 2.479409e-07 -3.691787e-08 -4.454791e-08 6.615785e-09
-1.285877e-07 -6.776020e-08 3.129713e-07 4.779871e-09 -1.140215e-08 -2.721367e-09
-1.230710e-07 -1.630842e-08 3.943463e-07 1.981286e-08 -5.290473e-08 -2.189050e-08
-1.203792e-07 -4.354217e-08 3.120172e-07 -9.343136e-09 -2.116356e-08 3.337705e-09
-2.254768e-08 1.264373e-08 -2.785698e-09 1.144017e-08 7.830232e-09 -3.817548e-09
-2.423079e-08 1.313581e-08 -2.692015e-09 1.101389e-08 7.608886e-09 -3.735671e-09
-2.565947e-08 1.558802e-08 -5.567442e-09 2.332438e-08 1.034741e-08 -8.499943e-09
1.425642e-10 -1.162892e-10 3.217249e-11 2.181088e-09 3.305947e-10 -9.958256e-12
-2.545824e-08 2.431303e-08 -1.138801e-08 1.952657e-08 1.192162e-08 -1.216226e-08
-2.317508e-08 1.573207e-08 -2.780131e-09 8.878889e-09 6.762933e-09 -2.535412e-09
-2.094572e-08 2.392521e-08 -8.535694e-09 6.250135e-09 8.455214e-09 -6.206189e-09
6.175619e-09 -2.872617e-09 -8.168266e-10 3.923439e-09 -8.968928e-11 4.803191e-11
6.721453e-09 -3.611648e-09 -8.872787e-10 3.657988e-09 -1.710935e-10 -2.858269e-10
5.850681e-09 -2.886541e-09 -7.939267e-10 2.837964e-09 -1.305138e-10 -4.253731e-11
4.709392e-09 -2.378702e-09 -6.280638e-10 3.390254e-09 -6.684144e-11 1.238853e-11
2.816002e-09 -2.527130e-08 -3.932128e-09 4.810722e-09 -2.062243e-09 9.468131e-10
-1.847372e-09 -1.483708e-08 -4.260648e-09 6.026473e-09 -1.322341e-09 1.280429e-09
2.486886e-09 -1.831448e-08 -2.814533e-09 4.486427e-09 -1.455879e-09 1.219426e-10
-1.901827e-08 3.101243e-08 -1.401228e-08 -1.665519e-08 6.767291e-09 6.428695e-09
-1.530158e-09 -1.372004e-08 -1.022553e-08 8.559676e-09 -4.313655e-09 1.824300e-09
-1.688342e-09 -1.356846e-08 -6.641783e-09 8.462392e-09 -5.456491e-09 3.611496e-09
2.855332e-09 -1.950731e-08 -5.615422e-09 5.136747e-09 3.768694e-10 -7.728151e-10
5.464692e-09 -2.176773e-08 -4.732154e-09 7.491700e-09 -4.197661e-09 3.321742e-09
2.555116e-09 -2.771080e-08 -1.050252e-09 8.560614e-09 -5.685972e-09 3.790327e-09
3.830674e-09 -2.071647e-08 -5.811737e-09 8.641563e-09 -5.623455e-09 1.404318e-09
-7.421501e-09 3.029783e-09 1.395026e-09 7.544519e-10 5.099787e-11 7.704628e-12
-7.444488e-09 3.121094e-09 1.340457e-09 9.338381e-10 1.071525e-10 -2.093185e-10
-7.454254e-09 2.901850e-09 1.378420e-09 4.178432e-10 6.906242e-11 -6.722614e-11
4.712025e-09 -2.378605e-09 -6.924950e-10 3.390846e-09 7.934080e-11 4.420064e-10
3.841294e-09 -1.925080e-09 -6.010863e-10 2.614384e-09 1.246871e-10 -4.617251e-10
4.024812e-09 -1.825276e-09 -5.168119e-10 3.832327e-09 2.252483e-10 4.567182e-10
7.387024e-09 -3.612163e-09 -1.197919e-09 -2.176137e-09 -8.466539e-11 5.490830e-11
7.282546e-09 -3.871408e-09 -1.126625e-09 -2.349694e-09 -2.884712e-10 -2.946332e-11
8.952545e-09 -4.376039e-09 -1.250044e-09 -2.543190e-09 -1.836360e-10 1.858893e-10
7.437798e-09 -3.444663e-09 -1.270187e-09 -2.297485e-09 1.200136e-10 1.604483e-11
8.130586e-09 -4.180856e-09 -1.217521e-09 -1.053939e-09 1.924749e-11 -3.091951e-10
9.341742e-09 -4.839221e-09 -1.339399e-09 -1.255070e-09 -5.124740e-11 1.911652e-10
8.960058e-09 -5.073669e-09 -1.287197e-09 -1.568537e-09 -2.262590e-11 -4.249290e-11
3.735311e-08 -6.139369e-09 2.590649e-08 3.352574e-08 1.746439e-09 1.675788e-08
4.079856e-08 -2.757888e-08 9.877837e-08 3.490765e-08 9.714656e-09 1.683409e-08
4.664791e-08 -2.760004e-08 3.694433e-08 2.713923e-08 7.097222e-09 1.084901e-08
4.293239e-08 -1.504054e-08 4.570217e-08 3.115387e-08 5.979406e-09 1.935925e-08
1.019834e-08 -4.683506e-09 -1.622313e-09 -2.985524e-09 7.747391e-11 3.006244e-10
7.414586e-09 -3.836390e-09 -1.154590e-09 -3.682279e-09 4.069167e-11 3.737362e-10
9.476175e-09 -4.846053e-09 -1.495911e-09 -3.657348e-09 8.061019e-11 -1.961438e-10
8.156784e-09 -3.911039e-09 -1.218703e-09 -3.056358e-09 1.099913e-10 -1.708231e-10
-1.250358e-08 -9.953451e-10 -8.152100e-09 -1.009695e-08 -3.135668e-09 -1.023786e-09