# vtk DataFile Version 2.0
Simplicial Mesh Example
ASCII
DATASET UNSTRUCTURED_GRID
POINTS 9490 double
4.132646e+04 -3.761110e+05 -2.495947e+04
1.739130e+04 -4.000000e+05 0.000000e+00
1.424943e+04 -3.757412e+05 -2.497841e+04
3.478261e+04 -4.000000e+05 -2.478841e+04
3.431474e+04 -3.668361e+05 0.000000e+00
6.536071e+04 -3.800007e+05 -2.495579e+04
5.217391e+04 -4.000000e+05 0.000000e+00
5.217391e+04 -4.000000e+05 -5.000000e+04
6.848295e+04 -3.663208e+05 -5.000000e+04
1.739130e+04 -4.000000e+05 -5.000000e+04
3.422046e+04 -3.663210e+05 -5.000000e+04
-4.000000e+05 1.043476e+05 -2.478869e+04
-3.778006e+05 1.290431e+05 -2.559237e+04
-3.668348e+05 1.033122e+05 0.000000e+00
-3.750401e+05 1.075547e+05 -3.181274e+04
4.000000e+05 -3.652174e+05 -2.500000e+04
3.692598e+05 -3.333058e+05 -2.499312e+04
3.776504e+05 -3.747415e+05 -2.247043e+04
3.693733e+05 -3.529960e+05 0.000000e+00
-4.000000e+05 8.695652e+04 0.000000e+00
-3.760516e+05 8.212939e+04 -2.543564e+04
-3.482879e+05 1.253124e+05 -2.574623e+04
-3.665651e+05 9.874016e+04 -5.000000e+04
-3.495547e+05 9.060720e+04 -2.563270e+04
-3.071185e+05 -3.486990e+05 -2.261025e+04
-3.153762e+05 -3.243183e+05 -5.000000e+04
-3.287827e+05 -3.355430e+05 -2.504110e+04
-3.095113e+05 -3.153966e+05 -2.507638e+04
-2.962358e+05 -3.323448e+05 0.000000e+00
-3.357456e+05 -3.422369e+05 0.000000e+00
-2.772919e+05 -3.669732e+05 0.000000e+00
-2.934123e+05 -3.742563e+05 -2.511903e+04
-2.806419e+05 -3.463229e+05 -2.661752e+04
-3.140042e+05 -3.607419e+05 -5.000000e+04
-3.320497e+05 -3.703516e+05 -2.524928e+04
-3.224905e+05 6.841821e+04 -2.756000e+04
-3.000000e+05 4.234958e+04 -2.422604e+04
-3.000000e+05 5.362570e+04 -5.000000e+04
-3.000000e+05 7.749820e+04 -2.479801e+04
3.227610e+05 -1.685566e+05 -2.697912e+04
3.499303e+05 -1.919500e+05 -2.498446e+04
3.500600e+05 -1.567367e+05 -2.546429e+04
3.335574e+05 -1.858748e+05 0.000000e+00
3.000000e+05 -1.659466e+05 0.000000e+00
3.208602e+05 -1.947095e+05 -2.232217e+04
3.000000e+05 -1.806737e+05 -2.506219e+04
3.330650e+05 -1.842018e+05 -5.000000e+04
3.000000e+05 -1.978940e+05 -5.000000e+04
3.000000e+05 -1.638587e+05 -5.000000e+04
-1.949782e+05 -3.787045e+05 -2.503133e+04
-1.713812e+05 -3.663209e+05 -5.000000e+04
-1.725141e+05 -3.772415e+05 -2.530126e+04
-1.913043e+05 -4.000000e+05 -5.000000e+04
-1.972219e+05 -3.510331e+05 -2.499278e+04
-1.739069e+05 -4.000000e+05 -2.478809e+04
-1.716829e+05 -3.668361e+05 0.000000e+00
-1.913043e+05 -4.000000e+05 0.000000e+00
1.358880e+05 -3.243044e+05 -2.504137e+04
1.166322e+05 -3.000000e+05 -2.516475e+04
1.497984e+05 -3.000000e+05 -2.516553e+04
1.333333e+05 -3.000000e+05 -5.000000e+04
1.825802e+05 3.751615e+05 -2.720292e+04
2.119132e+05 3.796036e+05 -2.524922e+04
2.061857e+05 3.668333e+05 0.000000e+00
1.947422e+05 3.503722e+05 -2.524152e+04
1.565217e+05 4.000000e+05 0.000000e+00
1.528807e+05 3.759790e+05 -2.499953e+04
1.739069e+05 4.000000e+05 -2.478809e+04
1.716839e+05 3.668365e+05 0.000000e+00
1.913043e+05 4.000000e+05 0.000000e+00
1.565217e+05 4.000000e+05 -5.000000e+04
1.713714e+05 3.663108e+05 -5.000000e+04
1.613560e+05 3.500277e+05 -2.506640e+04
-8.982230e+04 3.792244e+05 -2.494679e+04
-6.535746e+04 3.800015e+05 -2.495585e+04
-6.848071e+04 3.663195e+05 -5.000000e+04
-8.695652e+04 4.000000e+05 -5.000000e+04
-6.956522e+04 4.000000e+05 -2.478801e+04
-9.132937e+04 3.518806e+05 -2.497956e+04
-8.695652e+04 4.000000e+05 0.000000e+00
-6.863978e+04 3.668364e+05 0.000000e+00
8.983161e+04 -3.792230e+05 -2.494676e+04
8.695652e+04 -4.000000e+05 -5.000000e+04
6.956522e+04 -4.000000e+05 -2.478801e+04
8.695652e+04 -4.000000e+05 0.000000e+00
9.134075e+04 -3.518804e+05 -2.497894e+04
6.864043e+04 -3.668360e+05 0.000000e+00
-1.485035e+05 -3.773486e+05 -2.721498e+04
-1.630495e+05 -3.485427e+05 -2.521974e+04
-1.185212e+05 -3.761066e+05 -2.504756e+04
-1.217391e+05 -4.000000e+05 -5.000000e+04
-1.370985e+05 -3.663236e+05 -5.000000e+04
-1.217391e+05 -4.000000e+05 0.000000e+00
-1.391294e+05 -4.000000e+05 -2.478846e+04
-1.373218e+05 -3.668365e+05 0.000000e+00
-1.565217e+05 -4.000000e+05 0.000000e+00
-1.276844e+05 -3.500075e+05 -2.505733e+04
-3.784905e+05 1.568709e+05 -2.476156e+04
-3.664298e+05 1.337587e+05 -5.000000e+04
-3.514457e+05 1.599418e+05 -2.483113e+04
-4.000000e+05 1.565217e+05 -5.000000e+04
-4.000000e+05 1.391294e+05 -2.478846e+04
-3.668349e+05 1.375908e+05 0.000000e+00
-4.000000e+05 1.565217e+05 0.000000e+00
3.668265e+05 -1.714683e+05 0.000000e+00
4.000000e+05 -1.913043e+05 0.000000e+00
4.000000e+05 -1.739069e+05 -2.478809e+04
4.000000e+05 -1.565217e+05 0.000000e+00
3.763528e+05 1.812702e+05 -2.493822e+04
4.000000e+05 1.565217e+05 0.000000e+00
3.764050e+05 1.528124e+05 -2.490916e+04
4.000000e+05 1.739130e+05 -2.478510e+04
3.668383e+05 1.722952e+05 0.000000e+00
3.797466e+05 2.119345e+05 -2.497186e+04
4.000000e+05 1.913043e+05 -5.000000e+04
3.662642e+05 2.068445e+05 -5.000000e+04
3.507120e+05 1.619053e+05 -2.490325e+04
3.662844e+05 1.729597e+05 -5.000000e+04
4.000000e+05 1.565217e+05 -5.000000e+04
3.776488e+05 -7.900637e+04 -2.735718e+04
3.762845e+05 -4.901174e+04 -2.508786e+04
3.663605e+05 -6.676216e+04 -5.000000e+04
3.502306e+05 -5.807827e+04 -2.511783e+04
4.000000e+05 -5.217391e+04 -5.000000e+04
3.773063e+05 -1.038824e+05 -2.578879e+04
4.000000e+05 -8.695652e+04 0.000000e+00
3.668372e+05 -1.026508e+05 0.000000e+00
4.000000e+05 -5.217391e+04 0.000000e+00
4.000000e+05 -6.956519e+04 -2.478879e+04
3.668380e+05 -6.826645e+04 0.000000e+00
4.000000e+05 -1.043476e+05 -2.478869e+04
-1.666667e+05 -3.000000e+05 -5.000000e+04
-1.833333e+05 -3.000000e+05 -2.518468e+04
-1.933582e+05 -3.216521e+05 -2.503520e+04
-1.657267e+05 -3.213415e+05 -2.506307e+04
-1.666667e+05 -3.000000e+05 0.000000e+00
3.334882e+05 -2.202831e+05 0.000000e+00
3.000000e+05 -1.994599e+05 0.000000e+00
3.000000e+05 -2.085861e+05 -2.501244e+04
-1.859359e+05 -3.331067e+05 -5.000000e+04
-1.862587e+05 -3.335758e+05 0.000000e+00
-4.132523e+04 3.761107e+05 -2.495957e+04
-3.478261e+04 4.000000e+05 -2.478841e+04
-5.217391e+04 4.000000e+05 -5.000000e+04
-1.739130e+04 4.000000e+05 -5.000000e+04
-1.424890e+04 3.757408e+05 -2.497844e+04
-3.421938e+04 3.663190e+05 -5.000000e+04
-5.217391e+04 4.000000e+05 0.000000e+00
-1.739130e+04 4.000000e+05 0.000000e+00
-3.431405e+04 3.668365e+05 0.000000e+00
-2.739007e+04 3.505180e+05 -2.498776e+04
-1.739130e+05 4.000000e+05 -2.478510e+04
-1.528672e+05 3.759826e+05 -2.500255e+04
-1.716148e+05 3.668263e+05 0.000000e+00
-1.825315e+05 3.751689e+05 -2.721318e+04
-1.913043e+05 4.000000e+05 0.000000e+00
-2.059314e+05 3.667832e+05 0.000000e+00
-2.118669e+05 3.796033e+05 -2.526514e+04
-1.612599e+05 3.500460e+05 -2.507149e+04
-1.913043e+05 4.000000e+05 -5.000000e+04
-2.056558e+05 3.663226e+05 -5.000000e+04
-1.712892e+05 3.663242e+05 -5.000000e+04
-1.565217e+05 4.000000e+05 -5.000000e+04
3.507710e+05 -3.071241e+05 -1.983709e+04
3.472371e+05 -2.783609e+05 -2.630278e+04
3.316724e+05 -2.967750e+05 0.000000e+00
3.666108e+05 -2.775848e+05 0.000000e+00
3.309559e+05 -3.255688e+05 -2.698212e+04
3.397681e+05 -3.369212e+05 0.000000e+00
3.744093e+05 -2.934608e+05 -2.492539e+04
3.303054e+05 -2.869393e+05 -5.000000e+04
3.606270e+05 -3.135064e+05 -5.000000e+04
-3.238506e+05 1.781151e+05 -2.284516e+04
-3.335738e+05 1.866432e+05 0.000000e+00
-3.000000e+05 1.673499e+05 0.000000e+00
-3.000000e+05 2.005124e+05 0.000000e+00
-3.242363e+05 2.019112e+05 -2.479758e+04
-3.335722e+05 1.528704e+05 0.000000e+00
-3.219833e+05 1.550144e+05 -2.418889e+04
-3.331119e+05 1.814444e+05 -5.000000e+04
-3.500623e+05 1.947691e+05 -2.492389e+04
3.000000e+05 -1.480457e+05 -2.518612e+04
3.070808e+05 3.546107e+05 -1.714572e+04
2.838715e+05 3.432764e+05 -2.626473e+04
2.962288e+05 3.323792e+05 0.000000e+00
2.772894e+05 3.669850e+05 0.000000e+00
3.214547e+05 3.369143e+05 -2.636251e+04
3.136723e+05 3.607135e+05 -5.000000e+04
2.935138e+05 3.747013e+05 -2.499119e+04
3.357389e+05 3.423035e+05 0.000000e+00
3.310854e+05 3.708053e+05 -2.520548e+04
-3.303425e+05 2.864208e+05 -5.000000e+04
-3.469504e+05 2.817468e+05 -2.677742e+04
-3.300427e+05 3.281790e+05 -2.631692e+04
-3.606526e+05 3.133330e+05 -5.000000e+04
-3.538099e+05 3.084519e+05 -1.787405e+04
-3.749470e+05 2.933940e+05 -2.493585e+04
-3.716865e+05 3.330494e+05 -2.604840e+04
-3.422611e+05 3.357632e+05 0.000000e+00
-3.323575e+05 2.962961e+05 0.000000e+00
-3.669772e+05 2.773495e+05 0.000000e+00
-3.208683e+05 1.285984e+05 -2.543766e+04
-3.000000e+05 1.341874e+05 0.000000e+00
-3.000000e+05 1.457374e+05 -2.479770e+04
-3.331557e+05 1.463574e+05 -5.000000e+04
-3.335717e+05 1.191216e+05 0.000000e+00
-3.000000e+05 1.116890e+05 -2.479816e+04
3.750985e+05 1.731082e+04 -2.495385e+04
3.668370e+05 3.487991e+04 0.000000e+00
3.766226e+05 5.120408e+04 -2.491509e+04
3.486553e+05 3.094323e+04 -2.470062e+04
3.664079e+05 2.208090e+03 -5.000000e+04
3.755591e+05 -1.521008e+04 -2.489784e+04
3.365423e+05 9.969610e+02 -2.491966e+04
3.668382e+05 4.985393e+02 0.000000e+00
4.000000e+05 8.858707e-04 -2.478866e+04
4.000000e+05 1.739130e+04 0.000000e+00
3.664904e+05 3.662308e+04 -5.000000e+04
4.000000e+05 1.739130e+04 -5.000000e+04
4.000000e+05 3.478261e+04 -2.478841e+04
3.241835e+05 -1.338846e+05 -2.511108e+04
3.331162e+05 -1.156285e+05 -5.000000e+04
3.331063e+05 -1.499070e+05 -5.000000e+04
3.000000e+05 -1.298234e+05 -5.000000e+04
3.000000e+05 -1.142814e+05 -2.518156e+04
3.501925e+05 -1.229656e+05 -2.536930e+04
3.335703e+05 -1.518628e+05 0.000000e+00
3.335746e+05 -1.178848e+05 0.000000e+00
3.000000e+05 -1.324332e+05 0.000000e+00
-1.185180e+05 -3.335740e+05 0.000000e+00
-1.333333e+05 -3.000000e+05 0.000000e+00
-1.000000e+05 -3.000000e+05 0.000000e+00
-1.166667e+05 -3.000000e+05 -2.516967e+04
3.767701e+05 8.545747e+04 -2.498937e+04
4.000000e+05 8.695652e+04 -5.000000e+04
3.664910e+05 7.093362e+04 -5.000000e+04
3.664147e+05 1.050627e+05 -5.000000e+04
4.000000e+05 8.695652e+04 0.000000e+00
3.668311e+05 6.925743e+04 0.000000e+00
4.000000e+05 6.956522e+04 -2.478801e+04
3.532003e+05 6.143720e+04 -2.460611e+04
3.529343e+05 9.380645e+04 -2.566405e+04
-6.874474e+04 -3.242435e+05 -2.504036e+04
[...]
CELL_DATA 20058
SCALARS total_strain double 6
LOOKUP_TABLE default
9.207746e-12 5.285905e-11 -1.302158e-11 -8.479306e-11 -1.429162e-12 -6.572576e-12
-3.705658e-11 6.402434e-11 -9.007683e-12 -6.313461e-11 -8.250733e-12 1.110112e-12
4.270628e-11 2.907141e-11 -1.912071e-11 -7.352730e-11 -6.310619e-12 -9.338641e-12
2.106582e-11 3.514788e-11 -1.428546e-11 -7.971535e-11 -5.113410e-12 4.705958e-12
-2.346834e-11 5.915091e-11 -1.273059e-11 -5.863132e-11 -5.749345e-12 -8.079093e-13
-5.094591e-12 4.795542e-11 -1.347578e-11 -7.916112e-11 -9.219181e-12 -2.873479e-12
1.710188e-11 3.857004e-11 -1.378997e-11 -6.513723e-11 -6.453504e-12 -2.357975e-12
-1.299796e-10 -3.606120e-10 8.513279e-11 2.907372e-10 3.763545e-11 4.004796e-12
-2.277476e-10 -3.201435e-10 1.107638e-10 3.677867e-10 9.480344e-11 -4.658329e-12
-1.353495e-10 -3.433560e-10 1.116656e-10 2.709499e-10 7.074163e-11 -3.566258e-12
-2.548641e-10 -1.355861e-10 1.077218e-10 2.596985e-10 5.739276e-11 -1.754855e-11
-2.144644e-10 -3.115481e-10 1.034843e-10 3.277666e-10 9.161660e-11 -2.808406e-11
-1.675344e-10 -3.055574e-10 1.131861e-10 2.956182e-10 4.730788e-11 6.200151e-12
2.623377e-10 -1.324607e-10 -3.684997e-11 -3.951839e-12 9.240247e-13 4.113210e-12
2.394360e-10 -1.369188e-10 -3.815970e-11 6.190354e-12 3.046799e-13 -3.026579e-12
2.413501e-10 -1.331731e-10 -3.517409e-11 9.217405e-12 4.225204e-12 -6.323830e-13
-1.667777e-11 -4.613909e-10 1.194242e-10 -1.257968e-10 -5.135670e-12 -2.429958e-11
-1.432352e-10 -1.516396e-10 2.072520e-11 4.601564e-11 -4.335199e-12 -2.316258e-12
3.566925e-12 -4.682761e-10 1.228946e-10 -7.521753e-11 -9.290346e-13 6.299933e-12
3.885114e-11 -4.612666e-10 1.194924e-10 -1.231236e-10 -4.667822e-12 -1.590705e-11
7.758749e-11 -4.692162e-10 1.270841e-10 -6.580046e-11 -1.972533e-12 -1.325084e-11
5.992185e-11 -5.551666e-10 1.272791e-10 -1.047901e-10 -8.853473e-13 -1.282510e-11
-8.482370e-11 1.025935e-10 -4.128697e-12 -4.663248e-11 -4.906409e-12 -2.876033e-12
1.627045e-10 4.240277e-10 -2.075935e-10 -2.617557e-10 3.673439e-11 -9.826651e-11
-6.427747e-11 8.630785e-11 -4.315659e-12 -4.012923e-11 -3.354761e-12 2.537082e-12
-1.093508e-10 1.050653e-10 -2.371214e-12 -3.513456e-11 -1.823985e-12 -4.796274e-12
-1.019771e-10 1.037064e-10 -1.497469e-12 -3.306311e-11 -2.878864e-12 -4.175771e-12
-8.259793e-11 1.048797e-10 -1.421530e-12 -2.638112e-11 -1.721734e-12 -2.044365e-12
-9.012968e-11 1.042135e-10 -1.694311e-12 -2.688805e-11 -1.826539e-12 3.417266e-12
8.479883e-13 5.600675e-11 -1.729528e-11 -5.360135e-11 -1.079870e-11 -4.222733e-13
1.865352e-11 3.115774e-11 -1.391509e-11 -3.525447e-11 -1.469602e-12 2.851941e-12
4.494627e-12 2.230838e-11 -1.785239e-11 -5.848910e-11 -3.288675e-12 2.874478e-12
1.944807e-10 -6.654242e-10 -7.111600e-11 1.731383e-10 -1.447056e-10 1.088857e-11
2.291318e-10 -6.380718e-10 -5.743317e-11 1.139050e-10 -4.725209e-11 1.326877e-11
1.962071e-10 -7.005063e-10 -4.207590e-11 1.632653e-10 -7.495093e-11 2.218153e-11
2.071485e-10 -1.044240e-10 -3.524736e-11 -3.920242e-11 -2.831735e-12 1.349176e-11
2.224771e-10 -9.986989e-11 -3.597966e-11 -3.350620e-11 1.112721e-13 4.136247e-12
1.966836e-10 -9.115952e-11 -3.241585e-11 -4.462686e-11 -4.561351e-12 3.752054e-12
1.521112e-10 -7.814194e-11 -3.214173e-11 -4.147838e-11 -2.557066e-12 -1.027067e-12
-1.273932e-10 7.691980e-11 2.038059e-11 1.030931e-11 2.116307e-12 9.648837e-12
2.097202e-10 -9.898571e-11 -3.427170e-11 -3.220846e-11 -3.794520e-12 1.350120e-11
8.821388e-12 7.119638e-12 -7.184342e-10 3.186144e-10 -2.824081e-10 1.829691e-10
1.739640e-10 -7.557655e-11 -3.543510e-11 -4.332722e-11 -7.781241e-13 -1.048717e-12
-1.800209e-10 6.976375e-11 3.549250e-11 1.048472e-11 5.316192e-12 -4.473866e-12
-1.814708e-10 7.463807e-11 3.333911e-11 8.219203e-12 9.421353e-13 -4.313994e-12
-1.750884e-10 7.284306e-11 3.098855e-11 6.572964e-12 2.887801e-12 -9.452439e-13
-1.838849e-10 8.085621e-11 3.309042e-11 1.162137e-11 4.287348e-12 -5.444478e-12
-1.862561e-10 8.364598e-11 3.229372e-11 6.117440e-12 -8.273937e-14 -6.518675e-13
8.673737e-10 6.354228e-11 -9.115775e-11 4.252814e-10 4.278911e-11 1.969647e-11
2.365228e-10 -8.645964e-10 1.743627e-10 2.572786e-11 2.220444e-16 -4.802159e-12
1.182524e-09 -1.750533e-10 -4.611134e-11 4.337539e-10 6.185275e-11 2.383957e-10
4.099183e-10 9.506973e-11 -2.023957e-10 4.121822e-10 -5.936063e-11 -6.507317e-11
8.081518e-10 8.861045e-11 -1.183491e-10 4.760428e-10 1.075540e-10 7.093037e-11
9.160521e-10 1.286158e-10 -9.819168e-11 6.442197e-10 1.294953e-10 1.860693e-10
1.785383e-10 3.117684e-10 -9.602523e-10 2.614047e-10 -1.183725e-10 6.301159e-11
1.507363e-09 -5.821007e-10 1.848122e-11 -9.080148e-11 6.785461e-12 8.000778e-11
1.295319e-09 -6.176217e-10 1.387552e-10 1.105829e-10 5.707830e-12 1.998374e-12
1.470549e-09 -6.721762e-10 3.819167e-12 -3.117431e-11 6.449846e-11 4.949630e-11
1.440627e-09 -6.876530e-10 1.173182e-10 -4.105727e-11 -3.320666e-11 2.237093e-11
1.440137e-09 -6.778653e-10 1.179257e-10 7.987966e-11 3.109742e-11 2.281341e-11
1.473971e-09 -7.096421e-10 2.130660e-10 -1.647921e-11 3.071809e-11 8.177814e-11
1.281043e-09 -4.941085e-10 1.983747e-10 -3.635230e-10 -5.948020e-11 3.102711e-10
1.134592e-09 -4.441598e-10 2.207265e-10 -2.995897e-10 -3.264544e-11 2.075187e-10
1.100995e-09 -4.386363e-10 1.726748e-10 -3.480314e-10 -8.873902e-12 2.615868e-10
1.658568e-09 -7.105480e-10 2.280647e-10 -1.301282e-10 2.954792e-11 5.160908e-10
1.624413e-09 -7.100307e-10 6.897016e-10 -1.326179e-10 6.853740e-12 4.684086e-10
1.295545e-09 -5.750693e-10 2.268683e-10 -3.057889e-10 -5.131662e-11 1.689597e-10
1.277967e-09 -6.398955e-10 4.400431e-10 -3.405091e-10 -9.971726e-11 1.271147e-10
3.748468e-10 1.134894e-10 -6.827250e-11 -3.234671e-10 -1.579825e-11 1.734923e-11
8.752250e-10 8.507506e-11 5.180034e-11 -3.981428e-10 -4.465038e-11 2.641004e-10
1.055467e-09 -1.907290e-10 -1.492828e-11 -3.164254e-10 -4.353670e-11 2.569376e-10
4.281961e-10 -4.110090e-11 5.533307e-11 -2.653258e-10 -4.784737e-11 1.283836e-10
7.753411e-10 -2.229408e-10 -1.037193e-10 -2.212774e-10 1.250813e-11 9.423981e-11
-6.822631e-11 9.094814e-11 -5.548229e-12 -2.683453e-11 -3.128942e-12 2.799316e-12
-5.688960e-11 8.738010e-11 -6.702194e-12 -3.492717e-11 -5.860867e-12 -1.772971e-12
-2.586731e-11 7.287149e-11 -1.153455e-11 -3.549294e-11 -4.968026e-12 -2.773115e-12
-5.387246e-11 6.957634e-11 -9.333867e-12 -2.407807e-11 -5.732748e-12 -2.458478e-12
-9.528778e-11 5.929834e-11 1.132783e-11 3.196887e-12 4.060974e-12 -2.122580e-12
-1.102105e-10 6.962075e-11 1.263145e-11 4.427569e-13 2.946976e-12 9.895418e-13
-7.070589e-11 3.718119e-10 -6.155125e-10 1.891016e-10 -6.525380e-11 4.271812e-11
-1.171117e-10 7.041123e-11 1.431699e-11 7.995826e-12 4.594547e-12 4.984013e-12
-1.106244e-10 7.139933e-11 1.203349e-11 1.190803e-11 3.668954e-12 -1.245781e-12
-1.028244e-10 6.362910e-11 1.223444e-11 2.123546e-11 5.721423e-12 3.961165e-12
-9.209877e-11 5.191758e-11 1.142286e-11 1.176792e-11 3.213207e-12 4.525269e-13
-4.569066e-10 5.863303e-10 1.363851e-10 1.990159e-10 -1.324805e-10 -9.848761e-12
-9.920420e-11 7.436896e-11 1.197176e-11 1.974332e-11 3.087752e-12 -1.505018e-12
-2.222985e-10 3.438703e-10 -4.486038e-10 8.168422e-11 -8.021828e-11 9.042594e-11
-2.592575e-10 -2.162723e-10 9.270984e-11 1.992713e-10 4.379619e-11 -1.095568e-11
-3.202567e-10 -1.499147e-10 1.054845e-10 1.582465e-10 2.290601e-11 -1.241068e-11
-3.198588e-10 -1.118856e-10 8.945222e-11 1.642020e-10 3.733946e-11 -1.354922e-11
-3.487339e-10 -1.572036e-10 1.066067e-10 2.135128e-10 6.262413e-11 -7.223666e-12
-2.549276e-10 -1.314613e-10 4.391332e-11 2.565456e-10 7.693829e-11 -1.281814e-11
-3.988276e-11 7.503509e-11 -1.103206e-11 -5.275291e-11 -5.187850e-12 -5.451861e-12
-5.613288e-11 8.435141e-11 -6.804890e-12 -3.431722e-11 -4.433509e-12 -2.528755e-12
-5.951684e-11 7.938872e-11 -7.296830e-12 -2.217060e-11 1.534843e-12 -7.158718e-13
-4.085932e-11 6.630607e-11 -9.626078e-12 -3.216459e-11 -6.652911e-12 -3.052392e-12
-3.731682e-11 6.746514e-11 -1.100853e-11 -5.372058e-11 -1.068035e-12 -7.393863e-12
-4.610357e-11 7.570300e-11 -7.895906e-12 -3.225020e-11 -6.061818e-14 -7.008616e-12
-4.184046e-10 4.226663e-11 6.122458e-11 -1.759914e-10 -1.357703e-10 -3.255765e-11
-4.376979e-10 1.678124e-10 2.752243e-12 -1.212395e-10 -8.999512e-11 -2.480949e-11
-3.926122e-10 -4.062706e-11 4.801182e-11 -1.633977e-10 -1.369759e-10 -4.359380e-11
-4.031895e-10 3.952216e-11 1.907674e-11 -1.799427e-10 -1.245806e-10 -2.495459e-11
-4.267724e-10 9.083756e-11 -2.126055e-11 -1.881237e-10 -1.335053e-10 -5.627943e-11
1.367557e-09 -4.785077e-10 -1.658069e-10 5.296000e-11 3.406886e-11 5.384491e-11
1.367410e-09 -4.869117e-10 -2.773337e-11 5.434206e-11 2.356149e-11 5.905979e-11
6.802470e-10 4.505663e-11 -1.428231e-10 5.155765e-12 7.855638e-11 4.537382e-11
1.567123e-09 -4.915470e-10 -1.781837e-10 4.640266e-11 -1.484146e-11 1.824239e-10
1.439560e-09 -2.915099e-10 -2.306385e-10 2.067158e-10 4.978584e-11 2.031488e-10
1.289045e-09 -3.179477e-10 -1.149734e-10 -3.842315e-12 -9.913181e-13 2.530659e-11
1.156794e-09 -3.285732e-10 -1.335825e-10 1.370654e-10 -8.932188e-12 8.090217e-11
-3.603464e-10 -4.569589e-11 6.925349e-11 6.431033e-11 5.669376e-11 -2.306721e-11
-3.292886e-10 -4.089973e-11 1.337996e-11 1.258793e-10 4.487610e-11 -2.794964e-11
-3.238578e-10 -3.394884e-11 7.446155e-11 1.480193e-10 8.560663e-11 -5.730694e-12
-5.473023e-10 6.026806e-10 -5.288714e-11 1.866302e-10 3.140460e-11 9.318120e-11
-2.642757e-10 -2.154810e-10 7.942491e-11 1.682219e-10 5.447770e-11 -1.867995e-11
-3.177378e-10 -1.446878e-10 9.063772e-11 8.053380e-11 5.293233e-11 5.896283e-12
-1.208038e-10 7.014656e-11 1.514744e-11 1.636824e-11 3.186229e-12 4.813483e-12
-1.274341e-10 7.743672e-11 1.541012e-11 1.317302e-11 1.957989e-12 -1.415534e-13
-8.896883e-11 5.307399e-11 1.178968e-11 8.918644e-12 5.044853e-12 -7.519096e-12
-1.422027e-10 7.968648e-11 1.569589e-11 8.204326e-12 3.931744e-12 -4.210743e-12
-1.120437e-10 6.894663e-11 1.581468e-11 1.832889e-11 2.346123e-12 -6.101786e-12
-1.205978e-10 7.202572e-11 1.754419e-11 2.195594e-11 4.660293e-12 -3.084422e-12
-2.706869e-10 7.447518e-10 -5.305894e-10 -5.739950e-10 1.065790e-10 1.707162e-10
-2.493713e-10 8.365189e-10 6.878764e-11 -6.355116e-10 9.013301e-11 1.101948e-10
-1.266260e-10 5.956302e-10 1.557181e-10 -6.603350e-10 1.116130e-10 4.312529e-11
-4.039880e-11 8.068834e-11 -5.430323e-12 -1.154139e-10 6.374901e-13 3.715916e-12
4.289680e-12 4.813372e-10 1.224758e-10 -7.687658e-10 1.187118e-10 1.052938e-11
-2.375593e-10 6.343517e-10 5.381340e-11 -7.074513e-10 1.153131e-10 1.314636e-10
2.116973e-10 -1.051264e-10 -3.542500e-11 -2.272782e-11 -4.081846e-12 2.371436e-13
2.266418e-10 -1.156606e-10 -3.503553e-11 -2.265610e-11 -1.508127e-12 4.120926e-12
1.881304e-10 -9.586176e-11 -3.287781e-11 -4.210654e-11 -2.095213e-12 -4.942269e-12
2.321126e-10 -1.195040e-10 -3.666534e-11 -3.278284e-11 -1.613487e-12 -4.354676e-13
2.245497e-10 -9.513901e-11 -3.566281e-11 -4.635975e-11 -6.562750e-12 2.118639e-12
2.198353e-10 -1.181522e-10 -3.406231e-11 -2.858394e-11 -5.398348e-12 2.038064e-12
-2.408251e-10 1.312062e-10 -3.954170e-11 -4.678313e-11 -8.402168e-12 -9.125367e-12
-2.280571e-10 8.769785e-11 3.983036e-12 -3.895440e-11 -3.749001e-12 -7.422729e-12
-2.350071e-10 1.197851e-10 -1.433609e-11 -5.520440e-11 -2.087908e-11 1.063594e-13
-2.342377e-10 8.684609e-11 1.159517e-11 -4.146106e-11 -1.937561e-12 -5.799805e-12
2.458602e-10 -1.284086e-10 -3.734790e-11 4.721668e-12 1.034395e-12 4.639622e-13
2.428511e-10 -1.298391e-10 -3.629630e-11 9.436979e-12 8.327228e-13 4.805489e-12
2.274358e-10 -1.256850e-10 -3.627088e-11 2.266548e-11 -1.625176e-13 -1.864842e-12
2.580423e-10 -1.382008e-10 -3.855360e-11 2.671098e-11 1.922629e-13 -4.540313e-12
2.610285e-10 -1.417713e-10 -3.698553e-11 1.147565e-11 4.252235e-12 3.328005e-12
2.489795e-10 -1.317667e-10 -3.768985e-11 4.290507e-12 -1.239185e-12 3.644196e-12
2.422542e-10 -1.305840e-10 -3.691625e-11 -1.854239e-12 9.620360e-13 2.909228e-12
2.480611e-10 -1.361714e-10 -3.756373e-11 3.629708e-12 2.685380e-12 1.303402e-13
2.746212e-10 -1.363452e-10 -3.626166e-11 2.359477e-12 2.195910e-12 7.091550e-12
-5.996803e-11 7.357688e-10 -9.763671e-10 7.286122e-11 -1.143277e-10 7.191270e-11
-9.103829e-11 5.886314e-11 1.246492e-11 1.349409e-11 -5.618839e-13 1.593392e-12
-9.815526e-11 5.944578e-11 1.339018e-11 3.272893e-11 4.026779e-12 -5.465184e-12
-9.395684e-11 5.486545e-11 1.016343e-11 3.170486e-11 -3.486100e-14 -7.657430e-12
-1.038609e-10 6.232614e-11 1.310463e-11 1.878453e-11 4.574119e-14 -6.560086e-12
-1.178950e-10 6.736478e-11 1.256284e-11 2.517275e-11 2.738032e-12 -2.102984e-12
-1.114575e-10 6.812995e-11 1.465539e-11 2.230231e-11 3.471896e-12 -2.337575e-12
1.927285e-10 -2.047141e-10 -7.416352e-10 -5.555159e-10 1.298501e-10 4.009834e-11
-1.771397e-10 1.929579e-10 -3.853078e-10 -5.146811e-10 1.517514e-10 1.071288e-10
-4.229004e-10 3.081779e-10 -2.102984e-10 -2.257567e-10 1.111911e-11 1.412592e-11
-1.691101e-10 -1.550315e-11 -3.884040e-10 -5.104681e-10 1.200156e-10 1.115223e-10
8.259682e-11 -1.671605e-10 -5.320726e-10 -5.515546e-10 3.317790e-11 -3.600997e-11
-8.264289e-11 -5.593481e-11 -4.214247e-10 -5.309932e-10 1.256921e-10 1.071499e-10
2.614735e-10 -7.118474e-10 -1.964482e-10 -2.753258e-10 -1.387076e-10 -2.097833e-11
1.622702e-10 -6.911565e-10 -9.355072e-11 -1.798903e-10 -1.125344e-10 -2.666378e-11
1.662155e-10 -6.074838e-10 -1.843503e-10 -2.073157e-10 -1.227924e-10 -1.753542e-12
1.924736e-10 -5.572511e-10 -3.225646e-10 -3.207563e-10 -9.874657e-11 -4.037437e-11
1.666596e-10 -6.059206e-10 -7.573142e-11 -2.064777e-10 -5.717271e-11 2.933032e-11
8.930101e-11 -5.761995e-10 -1.420997e-10 -2.127538e-10 -7.137424e-11 -4.353806e-11
1.073985e-11 4.333867e-11 -1.608136e-11 -6.611556e-11 -9.519496e-12 -5.321521e-12
8.943957e-12 3.791989e-11 -1.343881e-11 -4.045164e-11 1.043610e-13 -2.582379e-12
3.891709e-11 3.142908e-11 -1.718181e-11 -5.262824e-11 -1.652012e-12 6.120660e-13
4.061906e-11 1.836398e-11 -2.006484e-11 -6.168427e-11 -7.867262e-12 -4.460793e-12
-3.745262e-10 -3.994316e-11 -8.324785e-11 -1.811817e-10 -9.198420e-11 -4.739709e-11
-3.913506e-10 6.913381e-11 -1.182263e-10 -1.794572e-10 -9.094478e-11 -1.969321e-11
-3.958860e-10 2.176481e-11 -3.341238e-11 -1.249680e-10 -4.485812e-11 -2.573430e-11
-3.244214e-10 -3.091039e-11 -7.700951e-11 -2.095195e-10 4.259482e-12 1.083533e-11
-7.286616e-11 9.974510e-11 -6.341594e-12 -9.936357e-12 -2.537748e-12 -1.627518e-12
-6.597611e-11 8.606982e-11 -6.737721e-12 -3.010148e-11 -6.081802e-12 -8.117396e-13
-6.967804e-11 9.966961e-11 -7.288281e-12 -1.824740e-11 -2.512046e-12 -3.444411e-12
-2.436549e-10 3.249738e-10 -6.257972e-10 -3.902185e-10 -4.306333e-11 -2.947220e-11
-8.958345e-11 1.024771e-10 -6.351586e-12 -2.107337e-11 -2.225442e-12 -4.569900e-12
1.170821e-10 -5.813918e-10 1.305422e-10 -1.460435e-10 2.136558e-11 -8.940793e-12
1.894256e-10 -7.591936e-10 1.268843e-10 -1.336995e-10 -2.087996e-12 -9.382772e-14
1.285949e-10 -6.135044e-10 9.134471e-11 -1.688975e-10 4.183803e-11 1.155277e-12
1.918590e-10 -6.473346e-10 8.632028e-11 -1.665277e-10 7.944312e-12 -3.885392e-12
1.898448e-10 -6.965744e-10 1.081943e-10 -1.529003e-10 2.468803e-11 -1.556755e-12
1.186926e-10 -5.558620e-11 -2.277289e-11 4.485567e-11 2.622347e-12 1.364908e-11
-2.964429e-10 -2.574110e-10 8.364864e-11 -1.474718e-10 -6.445611e-11 -2.142531e-11
-1.972431e-10 -2.064020e-10 1.192677e-10 -2.080487e-10 -3.519407e-12 -2.147826e-11
-1.969696e-10 -2.919602e-10 7.458612e-11 -1.305311e-10 -3.284280e-11 -2.194623e-11
-2.769340e-10 -1.649980e-10 1.176308e-10 -1.016209e-10 -5.891243e-11 9.633627e-12
-2.835279e-10 -2.648561e-10 1.101410e-10 -1.535856e-10 -7.493958e-11 -2.832068e-12
-1.937224e-10 -4.424852e-10 1.841705e-11 -1.847020e-10 -1.388394e-10 -3.959422e-11
-9.084111e-11 5.094103e-11 7.307488e-12 1.205236e-11 5.832779e-12 2.722933e-12
-1.986944e-10 1.708571e-10 -3.862111e-11 -1.522533e-10 -3.034906e-12 -1.645017e-11
-1.812532e-10 2.042544e-10 -5.071099e-11 -2.035166e-10 -3.292944e-11 1.898659e-11
-2.445089e-10 1.611449e-10 -5.430278e-11 -9.572576e-11 -1.895240e-11 1.052713e-11
-1.857270e-10 1.833098e-10 -5.658807e-11 -1.377494e-10 -6.274314e-12 -1.163336e-11
-2.036078e-10 2.342331e-10 -6.510659e-11 -1.841922e-10 -2.804645e-11 3.479128e-11
-3.522549e-09 -1.819356e-09 8.106471e-09 -1.714666e-10 6.027989e-11 1.377520e-11
-2.739156e-09 -1.302937e-09 6.859374e-09 -8.248434e-10 -6.828838e-10 5.277342e-10
-3.436738e-09 -1.874559e-09 8.192287e-09 -3.516831e-11 1.014686e-10 1.339404e-10
-3.484151e-09 -1.128278e-09 1.059548e-08 1.842934e-10 -8.254454e-10 -5.434389e-10
-3.164790e-09 -1.763769e-09 8.348169e-09 -3.130710e-10 -3.718992e-11 3.951113e-10
-4.518022e-10 3.984393e-10 -8.234746e-11 1.524516e-10 1.298885e-10 -7.261325e-11
-4.169971e-10 3.721192e-10 -8.207302e-11 1.517760e-10 1.339673e-10 -7.812484e-11
-5.171925e-10 4.210388e-10 -1.115965e-10 3.435802e-10 1.706046e-10 -1.373087e-10
9.613643e-12 -5.337952e-13 -1.890932e-12 5.170375e-11 8.427259e-12 -4.480860e-13
-5.118155e-10 5.572665e-10 -2.435110e-10 2.434278e-10 1.750066e-10 -2.354830e-10
-3.678400e-10 4.238356e-10 -6.132339e-11 6.284834e-11 1.010447e-10 -1.685671e-11
-3.070273e-10 5.495362e-10 -1.834168e-10 -2.037365e-11 1.059993e-10 -9.539014e-11
1.590137e-10 -6.694234e-11 -2.335376e-11 9.659543e-11 -1.664936e-12 1.470732e-12
1.721903e-10 -8.529155e-11 -2.508216e-11 9.032702e-11 -4.070744e-12 -6.983747e-12
1.509735e-10 -6.753531e-11 -2.288836e-11 6.958700e-11 -3.104628e-12 -9.083845e-13
1.217124e-10 -5.495682e-11 -1.852640e-11 8.275421e-11 -1.270458e-12 4.284351e-13
8.279977e-11 -6.040182e-10 -5.688339e-11 1.168789e-10 -4.279066e-11 1.593692e-11
-2.543810e-11 -3.632916e-10 -7.120515e-11 1.531184e-10 -2.268030e-11 2.311242e-11
7.651080e-11 -4.482308e-10 -3.528200e-11 1.128177e-10 -3.037481e-11 -3.368639e-12
-4.338693e-10 8.746635e-10 -4.849392e-10 -3.806385e-10 2.088055e-10 2.137561e-10
-2.123424e-11 -3.486758e-10 -2.041456e-10 2.243497e-10 -8.914935e-11 3.104378e-11
-1.929656e-11 -3.411529e-10 -1.236673e-10 2.168737e-10 -1.184748e-10 7.381797e-11
8.528600e-11 -4.788694e-10 -9.364287e-11 1.297828e-10 1.258083e-11 -2.132766e-11
1.453642e-10 -5.293526e-10 -7.478107e-11 1.823986e-10 -8.714807e-11 6.299428e-11
8.479684e-11 -6.551186e-10 -2.422507e-12 2.005767e-10 -1.177165e-10 6.366693e-11
1.078846e-10 -5.216204e-10 -1.003437e-10 2.135368e-10 -1.176886e-10 1.874398e-11
-1.705823e-10 6.982503e-11 3.245182e-11 1.499742e-11 1.669331e-12 4.986289e-14
-1.711704e-10 7.267786e-11 3.114242e-11 1.920770e-11 2.652323e-12 -5.343882e-12
-1.714024e-10 6.554335e-11 3.208278e-11 6.887602e-12 1.946332e-12 -1.953104e-12
1.217799e-10 -5.495471e-11 -2.018918e-11 8.276874e-11 2.289088e-12 1.106493e-11
1.006324e-10 -4.404255e-11 -1.786704e-11 6.341716e-11 3.330003e-12 -1.154765e-11
1.049614e-10 -4.091838e-11 -1.578471e-11 9.342904e-11 6.089795e-12 1.129430e-11
1.976721e-10 -8.721868e-11 -3.517009e-11 -5.271983e-11 -1.988854e-12 1.477929e-12
1.953637e-10 -9.357581e-11 -3.348100e-11 -5.683143e-11 -7.002871e-12 -3.572698e-13
2.349181e-10 -1.050582e-10 -3.610956e-11 -6.202602e-11 -4.014122e-12 4.689015e-12
1.987146e-10 -8.295231e-11 -3.660761e-11 -5.570577e-11 3.302580e-12 6.695755e-13
2.146185e-10 -1.010583e-10 -3.531930e-11 -2.581957e-11 8.041345e-13 -7.015832e-12
2.432099e-10 -1.166762e-10 -3.813350e-11 -3.039191e-11 -9.521828e-13 4.644285e-12
2.351008e-10 -1.229297e-10 -3.698464e-11 -3.835843e-11 -5.462297e-14 -8.566481e-13
6.093694e-10 1.173230e-10 1.672857e-10 7.394794e-10 2.573808e-11 1.991449e-10
7.758061e-10 -3.100199e-10 1.328043e-09 8.999405e-10 1.829256e-10 1.140217e-10
9.500543e-10 -3.104259e-10 3.774403e-10 7.459381e-10 1.472402e-10 1.244875e-10
7.056107e-10 -1.001239e-10 5.523528e-10 7.167932e-10 8.737500e-11 2.549403e-10
2.654854e-10 -1.131333e-10 -4.431833e-11 -7.312950e-11 2.071898e-12 7.161383e-12
1.986411e-10 -9.262546e-11 -3.404654e-11 -8.944290e-11 1.164069e-12 8.937295e-12
2.481180e-10 -1.171410e-10 -4.141310e-11 -8.931711e-11 2.027267e-12 -4.832801e-12
2.164340e-10 -9.446666e-11 -3.542810e-11 -7.445400e-11 2.758016e-12 -4.167555e-12
-3.052391e-10 -9.909940e-11 -8.378809e-11 -2.285865e-10 -4.562842e-11 -1.349634e-11