# vtk DataFile Version 2.0
Simplicial Mesh Example
ASCII
DATASET UNSTRUCTURED_GRID
POINTS 97 double
-1.460247e+05 -3.887590e+04 -5.000000e+03
-1.738435e+05 -5.126165e+04 -5.000000e+03
-1.384710e+05 -5.582752e+04 -1.571471e+04
-1.650004e+05 -5.240312e+04 -7.678677e+03
-1.561573e+05 -5.354459e+04 -1.035735e+04
-1.473141e+05 -5.468605e+04 -1.303603e+04
-1.637460e+05 -7.385600e+04 -1.928826e+04
-1.840501e+05 -1.032051e+05 -3.000000e+04
-1.182058e+05 -2.649016e+04 -5.000000e+03
-1.251605e+05 -2.958659e+04 -5.000000e+03
-1.232721e+05 -3.382450e+04 -7.678677e+03
-1.321152e+05 -3.268303e+04 -5.000000e+03
-1.302268e+05 -3.692093e+04 -7.678677e+03
-1.283384e+05 -4.115884e+04 -1.035735e+04
-1.390700e+05 -3.577947e+04 -5.000000e+03
-1.371815e+05 -4.001737e+04 -7.678677e+03
-1.441363e+05 -4.311381e+04 -7.678677e+03
-1.422478e+05 -4.735171e+04 -1.035735e+04
-1.352931e+05 -4.425528e+04 -1.035735e+04
-1.334047e+05 -4.849318e+04 -1.303603e+04
-1.403594e+05 -5.158962e+04 -1.303603e+04
-2.016624e+05 -6.364740e+04 -5.000000e+03
-1.662704e+05 -6.820741e+04 -1.571619e+04
-1.732251e+05 -7.130385e+04 -1.571619e+04
-1.687948e+05 -6.255882e+04 -1.214413e+04
-1.757495e+05 -6.565526e+04 -1.214413e+04
-1.827042e+05 -6.875170e+04 -1.214413e+04
-1.713191e+05 -5.691024e+04 -8.572065e+03
-1.782738e+05 -6.000667e+04 -8.572065e+03
-1.807982e+05 -5.435809e+04 -5.000000e+03
-1.877529e+05 -5.745452e+04 -5.000000e+03
-1.852286e+05 -6.310311e+04 -8.572065e+03
-1.921833e+05 -6.619955e+04 -8.572065e+03
-1.947076e+05 -6.055096e+04 -5.000000e+03
-1.284125e+05 -7.843358e+04 -3.000000e+04
-1.214577e+05 -7.533715e+04 -3.000000e+04
-1.145030e+05 -7.224071e+04 -3.000000e+04
-1.075483e+05 -6.914427e+04 -3.000000e+04
-1.005936e+05 -6.604784e+04 -3.000000e+04
-1.562313e+05 -9.081933e+04 -3.000000e+04
-1.372458e+05 -7.728919e+04 -2.732206e+04
-1.353672e+05 -8.153002e+04 -3.000000e+04
-1.460792e+05 -7.614479e+04 -2.464413e+04
-1.442005e+05 -8.038562e+04 -2.732206e+04
-1.423219e+05 -8.462646e+04 -3.000000e+04
-1.549126e+05 -7.500039e+04 -2.196619e+04
-1.530339e+05 -7.924123e+04 -2.464413e+04
-1.618673e+05 -7.809683e+04 -2.196619e+04
-1.599886e+05 -8.233766e+04 -2.464413e+04
-1.511553e+05 -8.348206e+04 -2.732206e+04
-1.492766e+05 -8.772289e+04 -3.000000e+04
-1.581100e+05 -8.657850e+04 -2.732206e+04
-1.770954e+05 -1.001086e+05 -3.000000e+04
-1.701407e+05 -9.701220e+04 -3.000000e+04
-1.631860e+05 -9.391577e+04 -3.000000e+04
-1.100630e+05 -6.349276e+04 -2.642868e+04
-1.195323e+05 -6.093768e+04 -2.285735e+04
-1.290017e+05 -5.838260e+04 -1.928603e+04
-1.447898e+05 -6.033464e+04 -1.660810e+04
-1.511085e+05 -6.484176e+04 -1.750148e+04
-1.574272e+05 -6.934888e+04 -1.839487e+04
-1.309271e+05 -7.278207e+04 -2.642868e+04
-1.334417e+05 -6.713055e+04 -2.285735e+04
-1.359564e+05 -6.147904e+04 -1.928603e+04
-1.492025e+05 -5.044815e+04 -1.035735e+04
-1.580457e+05 -4.930668e+04 -7.678677e+03
-1.668888e+05 -4.816521e+04 -5.000000e+03
-1.599341e+05 -4.506878e+04 -5.000000e+03
-1.510910e+05 -4.621024e+04 -7.678677e+03
-1.529794e+05 -4.197234e+04 -5.000000e+03
-1.789741e+05 -9.586781e+04 -2.732206e+04
-1.720194e+05 -9.277137e+04 -2.732206e+04
-1.738981e+05 -8.853054e+04 -2.464413e+04
-1.650647e+05 -8.967493e+04 -2.732206e+04
-1.669434e+05 -8.543410e+04 -2.464413e+04
-1.688220e+05 -8.119327e+04 -2.196619e+04
-1.536329e+05 -5.919317e+04 -1.392942e+04
-1.624760e+05 -5.805170e+04 -1.125074e+04
-1.599516e+05 -6.370029e+04 -1.482281e+04
-1.264870e+05 -6.403411e+04 -2.285735e+04
-1.239724e+05 -6.968563e+04 -2.642868e+04
-1.170177e+05 -6.658919e+04 -2.642868e+04
-1.138028e+05 -3.637958e+04 -1.125000e+04
-1.188691e+05 -4.371392e+04 -1.392868e+04
-1.093997e+05 -4.626900e+04 -1.750000e+04
-1.239354e+05 -5.104826e+04 -1.660735e+04
-1.144660e+05 -5.360334e+04 -2.017868e+04
-1.049967e+05 -5.615842e+04 -2.375000e+04
-1.485939e+05 -7.049327e+04 -2.107281e+04
-1.422751e+05 -6.598615e+04 -2.017942e+04
-1.397605e+05 -7.163767e+04 -2.375074e+04
-1.972593e+05 -7.353682e+04 -1.125000e+04
-1.928562e+05 -8.342624e+04 -1.750000e+04
-1.877802e+05 -7.608897e+04 -1.482206e+04
-1.884532e+05 -9.331566e+04 -2.375000e+04
-1.833772e+05 -8.597839e+04 -2.107206e+04
-1.783011e+05 -7.864112e+04 -1.839413e+04
CELLS 160 640
3  9 10 8
3  11 12 9
3  12 13 10
3  9 12 10
3  14 15 11
3  0 16 14
3  16 17 15
3  14 16 15
3  18 19 13
3  17 20 18
3  20 2 19
3  18 20 19
3  11 15 12
3  15 17 18
3  12 18 13
3  12 15 18
3  6 22 23
3  22 24 25
3  23 25 26
3  22 25 23
3  24 27 28
3  27 1 29
3  28 29 30
3  27 29 28
3  26 31 32
3  31 30 33
3  32 33 21
3  31 33 32
3  28 30 31
3  24 28 25
3  25 31 26
3  31 25 28
3  34 40 41
3  40 42 43
3  41 43 44
3  41 40 43
3  42 45 46
3  45 6 47
3  46 47 48
3  46 45 47
3  44 49 50
3  49 48 51
3  50 51 39
3  50 49 51
3  43 42 46
3  44 43 49
3  49 46 48
3  46 49 43
3  5 2 20
3  4 5 64
3  64 20 17
3  20 64 5
3  3 4 65
3  1 3 66
3  66 65 67
3  65 66 3
3  68 17 16
3  67 68 69
3  69 16 0
3  16 69 68
3  17 68 64
3  68 67 65
3  64 65 4
3  64 68 65
3  7 52 70
3  52 53 71
3  70 71 72
3  52 71 70
3  53 54 73
3  54 39 51
3  73 51 48
3  54 51 73
3  72 74 75
3  74 48 47
3  75 47 6
3  74 47 75
3  53 73 71
3  73 48 74
3  71 74 72
3  71 73 74
3  2 5 58
3  5 4 76
3  58 76 59
3  5 76 58
3  4 3 77
3  3 1 27
3  77 27 24
3  3 27 77
3  59 78 60
3  78 24 22
3  60 22 6
3  78 22 60
3  77 24 78
3  4 77 76
3  76 78 59
3  78 76 77
3  2 63 57
3  63 62 79
3  57 79 56
3  63 79 57
3  62 61 80
3  61 34 35
3  80 35 36
3  61 35 80
3  56 81 55
3  81 36 37
3  55 37 38
3  81 37 55
3  62 80 79
3  80 36 81
3  79 81 56
3  79 80 81
3  8 10 82
3  10 13 83
3  82 83 84
3  10 83 82
3  13 19 85
3  19 2 57
3  85 57 56
3  19 57 85
3  84 86 87
3  86 56 55
3  87 55 38
3  86 55 87
3  13 85 83
3  85 56 86
3  83 86 84
3  83 85 86
3  60 6 45
3  59 60 88
3  88 45 42
3  88 60 45
3  58 59 89
3  2 58 63
3  63 89 62
3  63 58 89
3  90 42 40
3  62 90 61
3  61 40 34
3  61 90 40
3  62 89 90
3  89 59 88
3  90 88 42
3  90 89 88
3  21 91 32
3  91 92 93
3  32 93 26
3  32 91 93
3  92 94 95
3  94 7 70
3  95 70 72
3  95 94 70
3  26 96 23
3  96 72 75
3  23 75 6
3  23 96 75
3  93 92 95
3  26 93 96
3  96 95 72
3  95 96 93
CELL_TYPES 160
5
5
5
5
5
5
5
5
5
5
5
5
5
5
5
5
5
5
5
5
5
5
5
5
5
5
5
5
5
5
5
5
5
5
5
5
5
5
5
5
5
5
5
5
5
5
5
5
5
5
5
5
5
5
5
5
5
5
5
5
5
5
5
5
5
5
5
5
5
5
5
5
5
5
5
5
5
5
5
5
5
5
5
5
5
5
5
5
5
5
5
5
5
5
5
5
5
5
5
5
5
5
5
5
5
5
5
5
5
5
5
5
5
5
5
5
5
5
5
5
5
5
5
5
5
5
5
5
5
5
5
5
5
5
5
5
5
5
5
5
5
5
5
5
5
5
5
5
5
5
5
5
5
5
5
5
5
5
5
5
POINT_DATA 97
VECTORS slip double
0.000000e+00 0.000000e+00 0.000000e+00
0.000000e+00 0.000000e+00 0.000000e+00
0.000000e+00 0.000000e+00 0.000000e+00
-5.413962e-02 -4.085903e-02 0.000000e+00
0.000000e+00 0.000000e+00 0.000000e+00
0.000000e+00 0.000000e+00 0.000000e+00
0.000000e+00 0.000000e+00 0.000000e+00
0.000000e+00 0.000000e+00 0.000000e+00
0.000000e+00 0.000000e+00 0.000000e+00
0.000000e+00 0.000000e+00 0.000000e+00
0.000000e+00 0.000000e+00 0.000000e+00
0.000000e+00 0.000000e+00 0.000000e+00
-2.076894e-01 -2.302873e-01 0.000000e+00
0.000000e+00 0.000000e+00 0.000000e+00
0.000000e+00 0.000000e+00 0.000000e+00
-3.048942e-01 -3.100103e-01 0.000000e+00
-6.410094e-01 -7.724778e-01 1.626303e-16
0.000000e+00 0.000000e+00 0.000000e+00
0.000000e+00 0.000000e+00 0.000000e+00
0.000000e+00 0.000000e+00 0.000000e+00
0.000000e+00 0.000000e+00 0.000000e+00
0.000000e+00 0.000000e+00 0.000000e+00
0.000000e+00 0.000000e+00 0.000000e+00
0.000000e+00 0.000000e+00 0.000000e+00
0.000000e+00 0.000000e+00 0.000000e+00
0.000000e+00 0.000000e+00 0.000000e+00
0.000000e+00 0.000000e+00 0.000000e+00
0.000000e+00 0.000000e+00 0.000000e+00
0.000000e+00 0.000000e+00 0.000000e+00
0.000000e+00 0.000000e+00 0.000000e+00
0.000000e+00 0.000000e+00 0.000000e+00
0.000000e+00 0.000000e+00 0.000000e+00
0.000000e+00 0.000000e+00 0.000000e+00
0.000000e+00 0.000000e+00 0.000000e+00
0.000000e+00 0.000000e+00 0.000000e+00
0.000000e+00 0.000000e+00 0.000000e+00
0.000000e+00 0.000000e+00 0.000000e+00
0.000000e+00 0.000000e+00 0.000000e+00
0.000000e+00 0.000000e+00 0.000000e+00
0.000000e+00 0.000000e+00 0.000000e+00
0.000000e+00 0.000000e+00 0.000000e+00
0.000000e+00 0.000000e+00 0.000000e+00
0.000000e+00 0.000000e+00 0.000000e+00
0.000000e+00 0.000000e+00 0.000000e+00
0.000000e+00 0.000000e+00 0.000000e+00
0.000000e+00 0.000000e+00 0.000000e+00
0.000000e+00 0.000000e+00 0.000000e+00
0.000000e+00 0.000000e+00 0.000000e+00
0.000000e+00 0.000000e+00 0.000000e+00
0.000000e+00 0.000000e+00 0.000000e+00
0.000000e+00 0.000000e+00 0.000000e+00
0.000000e+00 0.000000e+00 0.000000e+00
0.000000e+00 0.000000e+00 0.000000e+00
0.000000e+00 0.000000e+00 0.000000e+00
0.000000e+00 0.000000e+00 0.000000e+00
0.000000e+00 0.000000e+00 0.000000e+00
0.000000e+00 0.000000e+00 0.000000e+00
0.000000e+00 0.000000e+00 0.000000e+00
0.000000e+00 0.000000e+00 0.000000e+00
0.000000e+00 0.000000e+00 0.000000e+00
0.000000e+00 0.000000e+00 0.000000e+00
0.000000e+00 0.000000e+00 0.000000e+00
0.000000e+00 0.000000e+00 0.000000e+00
0.000000e+00 0.000000e+00 0.000000e+00
0.000000e+00 0.000000e+00 0.000000e+00
-2.368610e-01 -2.703880e-01 0.000000e+00
0.000000e+00 0.000000e+00 0.000000e+00
0.000000e+00 0.000000e+00 0.000000e+00
-3.537342e-01 -3.528723e-01 0.000000e+00
0.000000e+00 0.000000e+00 0.000000e+00
0.000000e+00 0.000000e+00 0.000000e+00
0.000000e+00 0.000000e+00 0.000000e+00
0.000000e+00 0.000000e+00 0.000000e+00
0.000000e+00 0.000000e+00 0.000000e+00
0.000000e+00 0.000000e+00 0.000000e+00
0.000000e+00 0.000000e+00 0.000000e+00
0.000000e+00 0.000000e+00 0.000000e+00
0.000000e+00 0.000000e+00 0.000000e+00
0.000000e+00 0.000000e+00 0.000000e+00
0.000000e+00 0.000000e+00 0.000000e+00
0.000000e+00 0.000000e+00 0.000000e+00
0.000000e+00 0.000000e+00 0.000000e+00
0.000000e+00 0.000000e+00 0.000000e+00
0.000000e+00 0.000000e+00 0.000000e+00
0.000000e+00 0.000000e+00 0.000000e+00
0.000000e+00 0.000000e+00 0.000000e+00
0.000000e+00 0.000000e+00 0.000000e+00
0.000000e+00 0.000000e+00 0.000000e+00
0.000000e+00 0.000000e+00 0.000000e+00
0.000000e+00 0.000000e+00 0.000000e+00
0.000000e+00 0.000000e+00 0.000000e+00
0.000000e+00 0.000000e+00 0.000000e+00
0.000000e+00 0.000000e+00 0.000000e+00
0.000000e+00 0.000000e+00 0.000000e+00
0.000000e+00 0.000000e+00 0.000000e+00
0.000000e+00 0.000000e+00 0.000000e+00
0.000000e+00 0.000000e+00 0.000000e+00
VECTORS traction double
0.000000e+00 0.000000e+00 0.000000e+00
0.000000e+00 0.000000e+00 0.000000e+00
-5.580185e+07 -8.251109e+07 -3.797899e+08
-5.582757e+07 -8.241801e+07 -1.659103e+08
-5.650896e+07 -8.382987e+07 -2.382302e+08
-5.586029e+07 -8.251976e+07 -3.102428e+08
-5.574432e+07 -8.244431e+07 -4.689491e+08
0.000000e+00 0.000000e+00 0.000000e+00
0.000000e+00 0.000000e+00 0.000000e+00
0.000000e+00 0.000000e+00 0.000000e+00
-5.605528e+07 -8.266336e+07 -1.868010e+08
0.000000e+00 0.000000e+00 0.000000e+00
-5.366798e+07 -7.915793e+07 -1.593932e+08
-5.616748e+07 -8.329371e+07 -2.590530e+08
0.000000e+00 0.000000e+00 0.000000e+00
-5.367485e+07 -7.916306e+07 -1.594067e+08
-4.981430e+07 -7.301165e+07 -1.473108e+08
-5.714893e+07 -8.580210e+07 -2.197497e+08
-5.664924e+07 -8.405062e+07 -2.318236e+08
-5.580877e+07 -8.250165e+07 -3.312508e+08
-5.594327e+07 -8.258920e+07 -2.919453e+08
0.000000e+00 0.000000e+00 0.000000e+00
-5.574732e+07 -8.244177e+07 -3.722186e+08
-5.574424e+07 -8.244046e+07 -3.959557e+08
-5.576060e+07 -8.244514e+07 -2.758595e+08
-5.574834e+07 -8.243716e+07 -2.798996e+08
-5.574280e+07 -8.243687e+07 -2.996210e+08
-5.588621e+07 -8.252883e+07 -1.795408e+08
-5.575638e+07 -8.244477e+07 -1.835561e+08
0.000000e+00 0.000000e+00 0.000000e+00
0.000000e+00 0.000000e+00 0.000000e+00
-5.574075e+07 -8.243613e+07 -1.835702e+08
-5.573985e+07 -8.243572e+07 -2.032896e+08
0.000000e+00 0.000000e+00 0.000000e+00
0.000000e+00 0.000000e+00 0.000000e+00
0.000000e+00 0.000000e+00 0.000000e+00
0.000000e+00 0.000000e+00 0.000000e+00
0.000000e+00 0.000000e+00 0.000000e+00
0.000000e+00 0.000000e+00 0.000000e+00
0.000000e+00 0.000000e+00 0.000000e+00
-5.573996e+07 -8.243953e+07 -6.829315e+08
0.000000e+00 0.000000e+00 0.000000e+00
-5.574290e+07 -8.244148e+07 -6.107098e+08
-5.574020e+07 -8.244118e+07 -6.892351e+08
0.000000e+00 0.000000e+00 0.000000e+00
-5.574503e+07 -8.244361e+07 -5.384893e+08
-5.574136e+07 -8.244043e+07 -6.170157e+08
-5.574155e+07 -8.243889e+07 -5.568349e+08
-5.574090e+07 -8.243925e+07 -6.290546e+08
-5.574061e+07 -8.244143e+07 -6.892368e+08
0.000000e+00 0.000000e+00 0.000000e+00
-5.573981e+07 -8.243776e+07 -7.012744e+08
0.000000e+00 0.000000e+00 0.000000e+00
0.000000e+00 0.000000e+00 0.000000e+00
0.000000e+00 0.000000e+00 0.000000e+00
-5.573965e+07 -8.243506e+07 -6.454412e+08
-5.574667e+07 -8.244514e+07 -5.491248e+08
-5.576605e+07 -8.247827e+07 -4.528119e+08
-5.578394e+07 -8.249103e+07 -4.002600e+08
-5.576374e+07 -8.246576e+07 -4.243604e+08
-5.575268e+07 -8.245249e+07 -4.484632e+08
-5.574071e+07 -8.244041e+07 -6.691609e+08
-5.574762e+07 -8.244635e+07 -5.728453e+08
-5.576065e+07 -8.246144e+07 -4.765261e+08
-5.673293e+07 -8.424713e+07 -2.319264e+08
-5.371213e+07 -7.899751e+07 -1.592134e+08
0.000000e+00 0.000000e+00 0.000000e+00
0.000000e+00 0.000000e+00 0.000000e+00
-5.371799e+07 -7.903114e+07 -1.592652e+08
0.000000e+00 0.000000e+00 0.000000e+00
-5.573764e+07 -8.243497e+07 -6.619295e+08
-5.573878e+07 -8.243609e+07 -6.892376e+08
-5.573848e+07 -8.243546e+07 -5.897097e+08
-5.573912e+07 -8.243689e+07 -6.892372e+08
-5.574062e+07 -8.243736e+07 -6.170176e+08
-5.574186e+07 -8.243832e+07 -5.174893e+08
-5.581243e+07 -8.250039e+07 -3.280273e+08
-5.585108e+07 -8.258787e+07 -2.557832e+08
-5.577493e+07 -8.247150e+07 -3.521261e+08
-5.574621e+07 -8.244385e+07 -5.688227e+08
-5.574034e+07 -8.243900e+07 -6.651397e+08
-5.573936e+07 -8.243639e+07 -6.651402e+08
0.000000e+00 0.000000e+00 0.000000e+00
-5.576816e+07 -8.245197e+07 -3.280334e+08
0.000000e+00 0.000000e+00 0.000000e+00
-5.577007e+07 -8.247033e+07 -4.002725e+08
-5.575014e+07 -8.244072e+07 -4.965867e+08
0.000000e+00 0.000000e+00 0.000000e+00
-5.574928e+07 -8.245041e+07 -5.206959e+08
-5.575656e+07 -8.245713e+07 -4.965994e+08
-5.574540e+07 -8.244553e+07 -5.929178e+08
0.000000e+00 0.000000e+00 0.000000e+00
0.000000e+00 0.000000e+00 0.000000e+00
-5.573951e+07 -8.243550e+07 -3.521326e+08
0.000000e+00 0.000000e+00 0.000000e+00
-5.573906e+07 -8.243529e+07 -5.206849e+08
-5.574119e+07 -8.243683e+07 -4.484649e+08
