# vtk DataFile Version 2.0
Simplicial Mesh Example
ASCII
DATASET UNSTRUCTURED_GRID
POINTS 9490 double
4.132646e+04 -3.761110e+05 -2.495947e+04
1.739130e+04 -4.000000e+05 0.000000e+00
1.424943e+04 -3.757412e+05 -2.497841e+04
3.478261e+04 -4.000000e+05 -2.478841e+04
3.431474e+04 -3.668361e+05 0.000000e+00
6.536071e+04 -3.800007e+05 -2.495579e+04
5.217391e+04 -4.000000e+05 0.000000e+00
5.217391e+04 -4.000000e+05 -5.000000e+04
6.848295e+04 -3.663208e+05 -5.000000e+04
1.739130e+04 -4.000000e+05 -5.000000e+04
3.422046e+04 -3.663210e+05 -5.000000e+04
-4.000000e+05 1.043476e+05 -2.478869e+04
-3.778006e+05 1.290431e+05 -2.559237e+04
-3.668348e+05 1.033122e+05 0.000000e+00
-3.750401e+05 1.075547e+05 -3.181274e+04
4.000000e+05 -3.652174e+05 -2.500000e+04
3.692598e+05 -3.333058e+05 -2.499312e+04
3.776504e+05 -3.747415e+05 -2.247043e+04
3.693733e+05 -3.529960e+05 0.000000e+00
-4.000000e+05 8.695652e+04 0.000000e+00
-3.760516e+05 8.212939e+04 -2.543564e+04
-3.482879e+05 1.253124e+05 -2.574623e+04
-3.665651e+05 9.874016e+04 -5.000000e+04
-3.495547e+05 9.060720e+04 -2.563270e+04
-3.071185e+05 -3.486990e+05 -2.261025e+04
-3.153762e+05 -3.243183e+05 -5.000000e+04
-3.287827e+05 -3.355430e+05 -2.504110e+04
-3.095113e+05 -3.153966e+05 -2.507638e+04
-2.962358e+05 -3.323448e+05 0.000000e+00
-3.357456e+05 -3.422369e+05 0.000000e+00
-2.772919e+05 -3.669732e+05 0.000000e+00
-2.934123e+05 -3.742563e+05 -2.511903e+04
-2.806419e+05 -3.463229e+05 -2.661752e+04
-3.140042e+05 -3.607419e+05 -5.000000e+04
-3.320497e+05 -3.703516e+05 -2.524928e+04
-3.224905e+05 6.841821e+04 -2.756000e+04
-3.000000e+05 4.234958e+04 -2.422604e+04
-3.000000e+05 5.362570e+04 -5.000000e+04
-3.000000e+05 7.749820e+04 -2.479801e+04
3.227610e+05 -1.685566e+05 -2.697912e+04
3.499303e+05 -1.919500e+05 -2.498446e+04
3.500600e+05 -1.567367e+05 -2.546429e+04
3.335574e+05 -1.858748e+05 0.000000e+00
3.000000e+05 -1.659466e+05 0.000000e+00
3.208602e+05 -1.947095e+05 -2.232217e+04
3.000000e+05 -1.806737e+05 -2.506219e+04
3.330650e+05 -1.842018e+05 -5.000000e+04
3.000000e+05 -1.978940e+05 -5.000000e+04
3.000000e+05 -1.638587e+05 -5.000000e+04
-1.949782e+05 -3.787045e+05 -2.503133e+04
-1.713812e+05 -3.663209e+05 -5.000000e+04
-1.725141e+05 -3.772415e+05 -2.530126e+04
-1.913043e+05 -4.000000e+05 -5.000000e+04
-1.972219e+05 -3.510331e+05 -2.499278e+04
-1.739069e+05 -4.000000e+05 -2.478809e+04
-1.716829e+05 -3.668361e+05 0.000000e+00
-1.913043e+05 -4.000000e+05 0.000000e+00
1.358880e+05 -3.243044e+05 -2.504137e+04
1.166322e+05 -3.000000e+05 -2.516475e+04
1.497984e+05 -3.000000e+05 -2.516553e+04
1.333333e+05 -3.000000e+05 -5.000000e+04
1.825802e+05 3.751615e+05 -2.720292e+04
2.119132e+05 3.796036e+05 -2.524922e+04
2.061857e+05 3.668333e+05 0.000000e+00
1.947422e+05 3.503722e+05 -2.524152e+04
1.565217e+05 4.000000e+05 0.000000e+00
1.528807e+05 3.759790e+05 -2.499953e+04
1.739069e+05 4.000000e+05 -2.478809e+04
1.716839e+05 3.668365e+05 0.000000e+00
1.913043e+05 4.000000e+05 0.000000e+00
1.565217e+05 4.000000e+05 -5.000000e+04
1.713714e+05 3.663108e+05 -5.000000e+04
1.613560e+05 3.500277e+05 -2.506640e+04
-8.982230e+04 3.792244e+05 -2.494679e+04
-6.535746e+04 3.800015e+05 -2.495585e+04
-6.848071e+04 3.663195e+05 -5.000000e+04
-8.695652e+04 4.000000e+05 -5.000000e+04
-6.956522e+04 4.000000e+05 -2.478801e+04
-9.132937e+04 3.518806e+05 -2.497956e+04
-8.695652e+04 4.000000e+05 0.000000e+00
-6.863978e+04 3.668364e+05 0.000000e+00
8.983161e+04 -3.792230e+05 -2.494676e+04
8.695652e+04 -4.000000e+05 -5.000000e+04
6.956522e+04 -4.000000e+05 -2.478801e+04
8.695652e+04 -4.000000e+05 0.000000e+00
9.134075e+04 -3.518804e+05 -2.497894e+04
6.864043e+04 -3.668360e+05 0.000000e+00
-1.485035e+05 -3.773486e+05 -2.721498e+04
-1.630495e+05 -3.485427e+05 -2.521974e+04
-1.185212e+05 -3.761066e+05 -2.504756e+04
-1.217391e+05 -4.000000e+05 -5.000000e+04
-1.370985e+05 -3.663236e+05 -5.000000e+04
-1.217391e+05 -4.000000e+05 0.000000e+00
-1.391294e+05 -4.000000e+05 -2.478846e+04
-1.373218e+05 -3.668365e+05 0.000000e+00
-1.565217e+05 -4.000000e+05 0.000000e+00
-1.276844e+05 -3.500075e+05 -2.505733e+04
-3.784905e+05 1.568709e+05 -2.476156e+04
-3.664298e+05 1.337587e+05 -5.000000e+04
-3.514457e+05 1.599418e+05 -2.483113e+04
-4.000000e+05 1.565217e+05 -5.000000e+04
-4.000000e+05 1.391294e+05 -2.478846e+04
-3.668349e+05 1.375908e+05 0.000000e+00
-4.000000e+05 1.565217e+05 0.000000e+00
3.668265e+05 -1.714683e+05 0.000000e+00
4.000000e+05 -1.913043e+05 0.000000e+00
4.000000e+05 -1.739069e+05 -2.478809e+04
4.000000e+05 -1.565217e+05 0.000000e+00
3.763528e+05 1.812702e+05 -2.493822e+04
4.000000e+05 1.565217e+05 0.000000e+00
3.764050e+05 1.528124e+05 -2.490916e+04
4.000000e+05 1.739130e+05 -2.478510e+04
3.668383e+05 1.722952e+05 0.000000e+00
3.797466e+05 2.119345e+05 -2.497186e+04
4.000000e+05 1.913043e+05 -5.000000e+04
3.662642e+05 2.068445e+05 -5.000000e+04
3.507120e+05 1.619053e+05 -2.490325e+04
3.662844e+05 1.729597e+05 -5.000000e+04
4.000000e+05 1.565217e+05 -5.000000e+04
3.776488e+05 -7.900637e+04 -2.735718e+04
3.762845e+05 -4.901174e+04 -2.508786e+04
3.663605e+05 -6.676216e+04 -5.000000e+04
3.502306e+05 -5.807827e+04 -2.511783e+04
4.000000e+05 -5.217391e+04 -5.000000e+04
3.773063e+05 -1.038824e+05 -2.578879e+04
4.000000e+05 -8.695652e+04 0.000000e+00
3.668372e+05 -1.026508e+05 0.000000e+00
4.000000e+05 -5.217391e+04 0.000000e+00
4.000000e+05 -6.956519e+04 -2.478879e+04
3.668380e+05 -6.826645e+04 0.000000e+00
4.000000e+05 -1.043476e+05 -2.478869e+04
-1.666667e+05 -3.000000e+05 -5.000000e+04
-1.833333e+05 -3.000000e+05 -2.518468e+04
-1.933582e+05 -3.216521e+05 -2.503520e+04
-1.657267e+05 -3.213415e+05 -2.506307e+04
-1.666667e+05 -3.000000e+05 0.000000e+00
3.334882e+05 -2.202831e+05 0.000000e+00
3.000000e+05 -1.994599e+05 0.000000e+00
3.000000e+05 -2.085861e+05 -2.501244e+04
-1.859359e+05 -3.331067e+05 -5.000000e+04
-1.862587e+05 -3.335758e+05 0.000000e+00
-4.132523e+04 3.761107e+05 -2.495957e+04
-3.478261e+04 4.000000e+05 -2.478841e+04
-5.217391e+04 4.000000e+05 -5.000000e+04
-1.739130e+04 4.000000e+05 -5.000000e+04
-1.424890e+04 3.757408e+05 -2.497844e+04
-3.421938e+04 3.663190e+05 -5.000000e+04
-5.217391e+04 4.000000e+05 0.000000e+00
-1.739130e+04 4.000000e+05 0.000000e+00
-3.431405e+04 3.668365e+05 0.000000e+00
-2.739007e+04 3.505180e+05 -2.498776e+04
-1.739130e+05 4.000000e+05 -2.478510e+04
-1.528672e+05 3.759826e+05 -2.500255e+04
-1.716148e+05 3.668263e+05 0.000000e+00
-1.825315e+05 3.751689e+05 -2.721318e+04
-1.913043e+05 4.000000e+05 0.000000e+00
-2.059314e+05 3.667832e+05 0.000000e+00
-2.118669e+05 3.796033e+05 -2.526514e+04
-1.612599e+05 3.500460e+05 -2.507149e+04
-1.913043e+05 4.000000e+05 -5.000000e+04
-2.056558e+05 3.663226e+05 -5.000000e+04
-1.712892e+05 3.663242e+05 -5.000000e+04
-1.565217e+05 4.000000e+05 -5.000000e+04
3.507710e+05 -3.071241e+05 -1.983709e+04
3.472371e+05 -2.783609e+05 -2.630278e+04
3.316724e+05 -2.967750e+05 0.000000e+00
3.666108e+05 -2.775848e+05 0.000000e+00
3.309559e+05 -3.255688e+05 -2.698212e+04
3.397681e+05 -3.369212e+05 0.000000e+00
3.744093e+05 -2.934608e+05 -2.492539e+04
3.303054e+05 -2.869393e+05 -5.000000e+04
3.606270e+05 -3.135064e+05 -5.000000e+04
-3.238506e+05 1.781151e+05 -2.284516e+04
-3.335738e+05 1.866432e+05 0.000000e+00
-3.000000e+05 1.673499e+05 0.000000e+00
-3.000000e+05 2.005124e+05 0.000000e+00
-3.242363e+05 2.019112e+05 -2.479758e+04
-3.335722e+05 1.528704e+05 0.000000e+00
-3.219833e+05 1.550144e+05 -2.418889e+04
-3.331119e+05 1.814444e+05 -5.000000e+04
-3.500623e+05 1.947691e+05 -2.492389e+04
3.000000e+05 -1.480457e+05 -2.518612e+04
3.070808e+05 3.546107e+05 -1.714572e+04
2.838715e+05 3.432764e+05 -2.626473e+04
2.962288e+05 3.323792e+05 0.000000e+00
2.772894e+05 3.669850e+05 0.000000e+00
3.214547e+05 3.369143e+05 -2.636251e+04
3.136723e+05 3.607135e+05 -5.000000e+04
2.935138e+05 3.747013e+05 -2.499119e+04
3.357389e+05 3.423035e+05 0.000000e+00
3.310854e+05 3.708053e+05 -2.520548e+04
-3.303425e+05 2.864208e+05 -5.000000e+04
-3.469504e+05 2.817468e+05 -2.677742e+04
-3.300427e+05 3.281790e+05 -2.631692e+04
-3.606526e+05 3.133330e+05 -5.000000e+04
-3.538099e+05 3.084519e+05 -1.787405e+04
-3.749470e+05 2.933940e+05 -2.493585e+04
-3.716865e+05 3.330494e+05 -2.604840e+04
-3.422611e+05 3.357632e+05 0.000000e+00
-3.323575e+05 2.962961e+05 0.000000e+00
-3.669772e+05 2.773495e+05 0.000000e+00
-3.208683e+05 1.285984e+05 -2.543766e+04
-3.000000e+05 1.341874e+05 0.000000e+00
-3.000000e+05 1.457374e+05 -2.479770e+04
-3.331557e+05 1.463574e+05 -5.000000e+04
-3.335717e+05 1.191216e+05 0.000000e+00
-3.000000e+05 1.116890e+05 -2.479816e+04
3.750985e+05 1.731082e+04 -2.495385e+04
3.668370e+05 3.487991e+04 0.000000e+00
3.766226e+05 5.120408e+04 -2.491509e+04
3.486553e+05 3.094323e+04 -2.470062e+04
3.664079e+05 2.208090e+03 -5.000000e+04
3.755591e+05 -1.521008e+04 -2.489784e+04
3.365423e+05 9.969610e+02 -2.491966e+04
3.668382e+05 4.985393e+02 0.000000e+00
4.000000e+05 8.858707e-04 -2.478866e+04
4.000000e+05 1.739130e+04 0.000000e+00
3.664904e+05 3.662308e+04 -5.000000e+04
4.000000e+05 1.739130e+04 -5.000000e+04
4.000000e+05 3.478261e+04 -2.478841e+04
3.241835e+05 -1.338846e+05 -2.511108e+04
3.331162e+05 -1.156285e+05 -5.000000e+04
3.331063e+05 -1.499070e+05 -5.000000e+04
3.000000e+05 -1.298234e+05 -5.000000e+04
3.000000e+05 -1.142814e+05 -2.518156e+04
3.501925e+05 -1.229656e+05 -2.536930e+04
3.335703e+05 -1.518628e+05 0.000000e+00
3.335746e+05 -1.178848e+05 0.000000e+00
3.000000e+05 -1.324332e+05 0.000000e+00
-1.185180e+05 -3.335740e+05 0.000000e+00
-1.333333e+05 -3.000000e+05 0.000000e+00
-1.000000e+05 -3.000000e+05 0.000000e+00
-1.166667e+05 -3.000000e+05 -2.516967e+04
3.767701e+05 8.545747e+04 -2.498937e+04
4.000000e+05 8.695652e+04 -5.000000e+04
3.664910e+05 7.093362e+04 -5.000000e+04
3.664147e+05 1.050627e+05 -5.000000e+04
4.000000e+05 8.695652e+04 0.000000e+00
3.668311e+05 6.925743e+04 0.000000e+00
4.000000e+05 6.956522e+04 -2.478801e+04
3.532003e+05 6.143720e+04 -2.460611e+04
3.529343e+05 9.380645e+04 -2.566405e+04
-6.874474e+04 -3.242435e+05 -2.504036e+04
[...]
CELL_DATA 20058
SCALARS total_strain double 6
LOOKUP_TABLE default
9.208634e-12 5.285905e-11 -1.302070e-11 -8.479306e-11 -1.429162e-12 -6.572132e-12
-3.705614e-11 6.402523e-11 -9.007461e-12 -6.313394e-11 -8.250844e-12 1.110723e-12
4.270628e-11 2.907141e-11 -1.912026e-11 -7.352818e-11 -6.310619e-12 -9.338863e-12
2.106670e-11 3.514788e-11 -1.428568e-11 -7.971446e-11 -5.113132e-12 4.705625e-12
-2.346656e-11 5.915179e-11 -1.273059e-11 -5.862999e-11 -5.749567e-12 -8.083534e-13
-5.089262e-12 4.795719e-11 -1.347578e-11 -7.916023e-11 -9.219292e-12 -2.873479e-12
1.710321e-11 3.857004e-11 -1.379041e-11 -6.513767e-11 -6.453615e-12 -2.357309e-12
-1.299778e-10 -3.606138e-10 8.513279e-11 2.907354e-10 3.763589e-11 4.004796e-12
-2.277494e-10 -3.201439e-10 1.107638e-10 3.677856e-10 9.480350e-11 -4.657441e-12
-1.353531e-10 -3.433565e-10 1.116656e-10 2.709513e-10 7.074252e-11 -3.565814e-12
-2.548659e-10 -1.355868e-10 1.077218e-10 2.596979e-10 5.739276e-11 -1.754877e-11
-2.144653e-10 -3.115499e-10 1.034843e-10 3.277660e-10 9.161616e-11 -2.808401e-11
-1.675371e-10 -3.055587e-10 1.131861e-10 2.956209e-10 4.730699e-11 6.200596e-12
2.623430e-10 -1.324608e-10 -3.684864e-11 -3.951839e-12 9.236362e-13 4.116540e-12
2.394334e-10 -1.369188e-10 -3.816059e-11 6.190187e-12 3.045758e-13 -3.028577e-12
2.413447e-10 -1.331730e-10 -3.517409e-11 9.216961e-12 4.225287e-12 -6.359357e-13
-1.667755e-11 -4.613927e-10 1.194236e-10 -1.257977e-10 -5.137668e-12 -2.429945e-11
-1.432352e-10 -1.516396e-10 2.072520e-11 4.601675e-11 -4.335199e-12 -2.316147e-12
3.566925e-12 -4.682761e-10 1.228946e-10 -7.521753e-11 -9.283685e-13 6.300439e-12
3.885114e-11 -4.612675e-10 1.194920e-10 -1.231209e-10 -4.668044e-12 -1.590653e-11
7.758727e-11 -4.692180e-10 1.270841e-10 -6.579906e-11 -1.971867e-12 -1.325084e-11
5.992185e-11 -5.551666e-10 1.272791e-10 -1.047893e-10 -8.840151e-13 -1.282500e-11
-8.482370e-11 1.025944e-10 -4.128253e-12 -4.663114e-11 -4.905187e-12 -2.876366e-12
1.627027e-10 4.240286e-10 -2.075935e-10 -2.617545e-10 3.673473e-11 -9.826495e-11
-6.427747e-11 8.630652e-11 -4.316991e-12 -4.012923e-11 -3.355316e-12 2.537526e-12
-1.093508e-10 1.050671e-10 -2.370992e-12 -3.513456e-11 -1.824429e-12 -4.795608e-12
-1.019789e-10 1.037099e-10 -1.497469e-12 -3.306333e-11 -2.879474e-12 -4.174883e-12
-8.259704e-11 1.048814e-10 -1.421530e-12 -2.638156e-11 -1.722622e-12 -2.043365e-12
-9.012968e-11 1.042118e-10 -1.694422e-12 -2.688982e-11 -1.827871e-12 3.417766e-12
8.462120e-13 5.600675e-11 -1.729483e-11 -5.360135e-11 -1.079825e-11 -4.209411e-13
1.865352e-11 3.115863e-11 -1.391554e-11 -3.525402e-11 -1.469824e-12 2.851941e-12
4.492851e-12 2.230638e-11 -1.785150e-11 -5.848888e-11 -3.289174e-12 2.874367e-12
1.944809e-10 -6.654259e-10 -7.111600e-11 1.731374e-10 -1.447067e-10 1.088896e-11
2.291323e-10 -6.380723e-10 -5.743317e-11 1.139050e-10 -4.725031e-11 1.326883e-11
1.962073e-10 -7.005063e-10 -4.207579e-11 1.632644e-10 -7.494805e-11 2.218162e-11
2.071485e-10 -1.044249e-10 -3.524647e-11 -3.920264e-11 -2.831513e-12 1.349176e-11
2.224771e-10 -9.986989e-11 -3.597878e-11 -3.350575e-11 1.117162e-13 4.136358e-12
1.966836e-10 -9.116041e-11 -3.241563e-11 -4.462708e-11 -4.561018e-12 3.752110e-12
1.521112e-10 -7.814105e-11 -3.214085e-11 -4.147793e-11 -2.557288e-12 -1.026845e-12
-1.273914e-10 7.691958e-11 2.038103e-11 1.031064e-11 2.117112e-12 9.650503e-12
2.097185e-10 -9.898660e-11 -3.427081e-11 -3.220857e-11 -3.793799e-12 1.350253e-11
8.820944e-12 7.121415e-12 -7.184351e-10 3.186147e-10 -2.824083e-10 1.829686e-10
1.739640e-10 -7.557655e-11 -3.543510e-11 -4.332677e-11 -7.781241e-13 -1.048717e-12
-1.800231e-10 6.976375e-11 3.549294e-11 1.048184e-11 5.314971e-12 -4.475198e-12
-1.814753e-10 7.463630e-11 3.333955e-11 8.218759e-12 9.429124e-13 -4.312106e-12
-1.750902e-10 7.283951e-11 3.098855e-11 6.570300e-12 2.888356e-12 -9.452439e-13
-1.838885e-10 8.085621e-11 3.309086e-11 1.162270e-11 4.288236e-12 -5.441925e-12
-1.862527e-10 8.364620e-11 3.229461e-11 6.119161e-12 -8.276713e-14 -6.512291e-13
8.673755e-10 6.354250e-11 -9.115686e-11 4.252809e-10 4.278838e-11 1.969602e-11
2.365237e-10 -8.645982e-10 1.743627e-10 2.572764e-11 2.220444e-16 -4.800826e-12
1.182519e-09 -1.750515e-10 -4.611111e-11 4.337526e-10 6.185219e-11 2.383953e-10
4.099183e-10 9.506884e-11 -2.023957e-10 4.121828e-10 -5.936074e-11 -6.507361e-11
8.081464e-10 8.861090e-11 -1.183488e-10 4.760417e-10 1.075544e-10 7.092948e-11
9.160548e-10 1.286149e-10 -9.819212e-11 6.442202e-10 1.294944e-10 1.860703e-10
1.785381e-10 3.117719e-10 -9.602523e-10 2.614051e-10 -1.183721e-10 6.301184e-11
1.507368e-09 -5.821014e-10 1.848122e-11 -9.080392e-11 6.785350e-12 8.000867e-11
1.295319e-09 -6.176215e-10 1.387561e-10 1.105829e-10 5.707271e-12 1.999262e-12
1.470550e-09 -6.721761e-10 3.819167e-12 -3.117437e-11 6.449752e-11 4.949641e-11
1.440629e-09 -6.876539e-10 1.173186e-10 -4.105733e-11 -3.320777e-11 2.237072e-11
1.440140e-09 -6.778662e-10 1.179252e-10 7.988310e-11 3.109820e-11 2.281342e-11
1.473973e-09 -7.096423e-10 2.130660e-10 -1.647937e-11 3.071710e-11 8.177858e-11
1.281041e-09 -4.941088e-10 1.983751e-10 -3.635237e-10 -5.947992e-11 3.102707e-10
1.134591e-09 -4.441599e-10 2.207265e-10 -2.995913e-10 -3.264478e-11 2.075189e-10
1.100995e-09 -4.386363e-10 1.726752e-10 -3.480311e-10 -8.873929e-12 2.615865e-10
1.658568e-09 -7.105484e-10 2.280651e-10 -1.301264e-10 2.954767e-11 5.160903e-10
1.624414e-09 -7.100309e-10 6.897025e-10 -1.326167e-10 6.853629e-12 4.684075e-10
1.295545e-09 -5.750695e-10 2.268683e-10 -3.057904e-10 -5.131662e-11 1.689617e-10
1.277968e-09 -6.398955e-10 4.400431e-10 -3.405098e-10 -9.971710e-11 1.271147e-10
3.748450e-10 1.134890e-10 -6.827161e-11 -3.234670e-10 -1.579847e-11 1.734879e-11
8.752268e-10 8.507461e-11 5.180123e-11 -3.981434e-10 -4.465070e-11 2.641000e-10
1.055465e-09 -1.907292e-10 -1.492917e-11 -3.164253e-10 -4.353670e-11 2.569385e-10
4.281944e-10 -4.110079e-11 5.533329e-11 -2.653257e-10 -4.784731e-11 1.283829e-10
7.753391e-10 -2.229407e-10 -1.037197e-10 -2.212763e-10 1.250774e-11 9.424114e-11
-6.822809e-11 9.094991e-11 -5.548451e-12 -2.683409e-11 -3.128608e-12 2.798650e-12
-5.688783e-11 8.738166e-11 -6.703083e-12 -3.492540e-11 -5.861561e-12 -1.772305e-12
-2.586731e-11 7.287149e-11 -1.153411e-11 -3.549294e-11 -4.968248e-12 -2.773115e-12
-5.387335e-11 6.957457e-11 -9.334311e-12 -2.407718e-11 -5.733636e-12 -2.460698e-12
-9.528778e-11 5.929834e-11 1.132783e-11 3.196887e-12 4.060752e-12 -2.122830e-12
-1.102141e-10 6.962075e-11 1.263167e-11 4.427569e-13 2.946754e-12 9.890977e-13
-7.070589e-11 3.718119e-10 -6.155134e-10 1.891025e-10 -6.525291e-11 4.271803e-11
-1.171134e-10 7.041123e-11 1.431655e-11 7.996936e-12 4.592993e-12 4.983791e-12
-1.106244e-10 7.139977e-11 1.203393e-11 1.190448e-11 3.668954e-12 -1.244005e-12
-1.028244e-10 6.362910e-11 1.223399e-11 2.123546e-11 5.721867e-12 3.961276e-12
-9.209877e-11 5.191758e-11 1.142286e-11 1.176792e-11 3.213207e-12 4.520828e-13
-4.569066e-10 5.863305e-10 1.363851e-10 1.990159e-10 -1.324807e-10 -9.848816e-12
-9.920598e-11 7.436984e-11 1.197220e-11 1.974065e-11 3.087752e-12 -1.502798e-12
-2.222988e-10 3.438703e-10 -4.486038e-10 8.168408e-11 -8.021916e-11 9.042600e-11
-2.592557e-10 -2.162741e-10 9.270895e-11 1.992717e-10 4.379608e-11 -1.095590e-11
-3.202549e-10 -1.499156e-10 1.054845e-10 1.582485e-10 2.290579e-11 -1.241002e-11
-3.198575e-10 -1.118856e-10 8.945222e-11 1.642022e-10 3.733969e-11 -1.354877e-11
-3.487357e-10 -1.572036e-10 1.066058e-10 2.135125e-10 6.262524e-11 -7.223666e-12
-2.549299e-10 -1.314613e-10 4.391243e-11 2.565453e-10 7.693923e-11 -1.281675e-11
-3.988632e-11 7.503509e-11 -1.103206e-11 -5.275202e-11 -5.187850e-12 -5.450085e-12
-5.613643e-11 8.435141e-11 -6.805778e-12 -3.431799e-11 -4.433287e-12 -2.530087e-12
-5.951861e-11 7.938872e-11 -7.296830e-12 -2.216971e-11 1.534843e-12 -7.176482e-13
-4.085754e-11 6.630607e-11 -9.626078e-12 -3.216370e-11 -6.652911e-12 -3.054168e-12
-3.732037e-11 6.746514e-11 -1.100853e-11 -5.371792e-11 -1.068035e-12 -7.392975e-12
-4.610445e-11 7.570300e-11 -7.895906e-12 -3.225198e-11 -6.061818e-14 -7.011280e-12
-4.184082e-10 4.226486e-11 6.122525e-11 -1.759886e-10 -1.357692e-10 -3.255760e-11
-4.376961e-10 1.678124e-10 2.751799e-12 -1.212399e-10 -8.999690e-11 -2.480904e-11
-3.926139e-10 -4.062706e-11 4.801315e-11 -1.633969e-10 -1.369739e-10 -4.359468e-11
-4.031921e-10 3.951861e-11 1.907852e-11 -1.799405e-10 -1.245810e-10 -2.495404e-11
-4.267742e-10 9.084111e-11 -2.126066e-11 -1.881233e-10 -1.335067e-10 -5.627976e-11
1.367559e-09 -4.785078e-10 -1.658069e-10 5.295778e-11 3.406864e-11 5.384647e-11
1.367412e-09 -4.869115e-10 -2.773248e-11 5.434051e-11 2.356160e-11 5.905779e-11
6.802470e-10 4.505685e-11 -1.428233e-10 5.155876e-12 7.855672e-11 4.537393e-11
1.567123e-09 -4.915470e-10 -1.781837e-10 4.640255e-11 -1.484174e-11 1.824261e-10
1.439558e-09 -2.915108e-10 -2.306392e-10 2.067176e-10 4.978568e-11 2.031485e-10
1.289045e-09 -3.179479e-10 -1.149743e-10 -3.842482e-12 -9.914291e-13 2.530476e-11
1.156790e-09 -3.285741e-10 -1.335825e-10 1.370671e-10 -8.932188e-12 8.090217e-11
-3.603464e-10 -4.569500e-11 6.925394e-11 6.430945e-11 5.669420e-11 -2.306666e-11
-3.292850e-10 -4.090062e-11 1.338130e-11 1.258784e-10 4.487632e-11 -2.794898e-11
-3.238569e-10 -3.394884e-11 7.446044e-11 1.480185e-10 8.560663e-11 -5.731304e-12
-5.473023e-10 6.026810e-10 -5.288714e-11 1.866300e-10 3.140468e-11 9.318130e-11
-2.642757e-10 -2.154810e-10 7.942536e-11 1.682232e-10 5.447620e-11 -1.867934e-11
-3.177387e-10 -1.446860e-10 9.063816e-11 8.053425e-11 5.293255e-11 5.896728e-12
-1.208056e-10 7.014656e-11 1.514833e-11 1.636469e-11 3.186118e-12 4.815259e-12
-1.274332e-10 7.743672e-11 1.540990e-11 1.317479e-11 1.957545e-12 -1.398881e-13
-8.896883e-11 5.307577e-11 1.178968e-11 8.918644e-12 5.046630e-12 -7.519096e-12
-1.422031e-10 7.968382e-11 1.569544e-11 8.204104e-12 3.929745e-12 -4.213407e-12
-1.120446e-10 6.894929e-11 1.581424e-11 1.832845e-11 2.345457e-12 -6.102674e-12
-1.205995e-10 7.202394e-11 1.754330e-11 2.195771e-11 4.656733e-12 -3.084200e-12
-2.706869e-10 7.447509e-10 -5.305885e-10 -5.739948e-10 1.065790e-10 1.707165e-10
-2.493714e-10 8.365193e-10 6.878764e-11 -6.355124e-10 9.013257e-11 1.101949e-10
-1.266264e-10 5.956293e-10 1.557181e-10 -6.603355e-10 1.116112e-10 4.312522e-11
-4.039968e-11 8.068746e-11 -5.428547e-12 -1.154121e-10 6.358247e-13 3.715805e-12
4.289680e-12 4.813376e-10 1.224758e-10 -7.687660e-10 1.187117e-10 1.052941e-11
-2.375595e-10 6.343526e-10 5.381384e-11 -7.074518e-10 1.153133e-10 1.314639e-10
2.116973e-10 -1.051264e-10 -3.542633e-11 -2.272782e-11 -4.082068e-12 2.364775e-13
2.266418e-10 -1.156608e-10 -3.503597e-11 -2.265610e-11 -1.508182e-12 4.120260e-12
1.881304e-10 -9.586221e-11 -3.287826e-11 -4.210698e-11 -2.095546e-12 -4.942380e-12
2.321143e-10 -1.195041e-10 -3.666445e-11 -3.278287e-11 -1.614042e-12 -4.352456e-13
2.245515e-10 -9.513990e-11 -3.566236e-11 -4.636075e-11 -6.563083e-12 2.117917e-12
2.198353e-10 -1.181526e-10 -3.406209e-11 -2.858411e-11 -5.398598e-12 2.038508e-12
-2.408247e-10 1.312070e-10 -3.953993e-11 -4.678247e-11 -8.400391e-12 -9.125145e-12
-2.280576e-10 8.769785e-11 3.983036e-12 -3.895462e-11 -3.750333e-12 -7.422285e-12
-2.350076e-10 1.197851e-10 -1.433698e-11 -5.520462e-11 -2.087863e-11 1.052491e-13
-2.342377e-10 8.684609e-11 1.159517e-11 -4.146106e-11 -1.939338e-12 -5.800249e-12
2.458611e-10 -1.284086e-10 -3.734701e-11 4.721668e-12 1.034228e-12 4.662937e-13
2.428528e-10 -1.298389e-10 -3.629608e-11 9.436077e-12 8.324313e-13 4.809486e-12
2.274358e-10 -1.256850e-10 -3.627099e-11 2.266737e-11 -1.620475e-13 -1.865286e-12
2.580409e-10 -1.382010e-10 -3.855405e-11 2.671187e-11 1.927070e-13 -4.538536e-12
2.610268e-10 -1.417714e-10 -3.698530e-11 1.147656e-11 4.252491e-12 3.331557e-12
2.489804e-10 -1.317669e-10 -3.769074e-11 4.290435e-12 -1.238759e-12 3.643086e-12
2.422507e-10 -1.305841e-10 -3.691447e-11 -1.855072e-12 9.624246e-13 2.913003e-12
2.480638e-10 -1.361715e-10 -3.756273e-11 3.629652e-12 2.685380e-12 1.335598e-13
2.746208e-10 -1.363453e-10 -3.626077e-11 2.360463e-12 2.195480e-12 7.095324e-12
-5.996847e-11 7.357697e-10 -9.763671e-10 7.286055e-11 -1.143273e-10 7.191269e-11
-9.103829e-11 5.886314e-11 1.246447e-11 1.349365e-11 -5.618839e-13 1.592282e-12
-9.815615e-11 5.944401e-11 1.339018e-11 3.273071e-11 4.025891e-12 -5.464296e-12
-9.395684e-11 5.486633e-11 1.016343e-11 3.170486e-11 -3.441691e-14 -7.657430e-12
-1.038591e-10 6.232437e-11 1.310552e-11 1.878631e-11 4.707346e-14 -6.557199e-12
-1.178986e-10 6.736656e-11 1.256284e-11 2.517631e-11 2.738698e-12 -2.102984e-12
-1.114557e-10 6.812817e-11 1.465539e-11 2.230234e-11 3.473243e-12 -2.335382e-12
1.927281e-10 -2.047141e-10 -7.416388e-10 -5.555159e-10 1.298501e-10 4.009767e-11
-1.771397e-10 1.929605e-10 -3.853087e-10 -5.146814e-10 1.517509e-10 1.071293e-10
-4.229005e-10 3.081775e-10 -2.103002e-10 -2.257566e-10 1.111888e-11 1.412598e-11
-1.691101e-10 -1.550271e-11 -3.884049e-10 -5.104686e-10 1.200153e-10 1.115225e-10
8.259704e-11 -1.671605e-10 -5.320735e-10 -5.515535e-10 3.317835e-11 -3.601075e-11
-8.264289e-11 -5.593481e-11 -4.214264e-10 -5.309937e-10 1.256926e-10 1.071492e-10
2.614744e-10 -7.118474e-10 -1.964469e-10 -2.753262e-10 -1.387078e-10 -2.097900e-11
1.622702e-10 -6.911565e-10 -9.355139e-11 -1.798910e-10 -1.125341e-10 -2.666445e-11
1.662164e-10 -6.074803e-10 -1.843485e-10 -2.073167e-10 -1.227942e-10 -1.753098e-12
1.924754e-10 -5.572529e-10 -3.225655e-10 -3.207568e-10 -9.874590e-11 -4.037481e-11
1.666605e-10 -6.059189e-10 -7.572964e-11 -2.064788e-10 -5.717382e-11 2.933032e-11
8.930279e-11 -5.761978e-10 -1.420988e-10 -2.127543e-10 -7.137380e-11 -4.353851e-11
1.073808e-11 4.333955e-11 -1.607869e-11 -6.611645e-11 -9.519052e-12 -5.321521e-12
8.943957e-12 3.791989e-11 -1.343792e-11 -4.045075e-11 1.043610e-13 -2.581491e-12
3.891709e-11 3.143263e-11 -1.718137e-11 -5.262879e-11 -1.650236e-12 6.115664e-13
4.061906e-11 1.836309e-11 -2.006573e-11 -6.168471e-11 -7.867706e-12 -4.461237e-12
-3.745271e-10 -3.994494e-11 -8.324785e-11 -1.811822e-10 -9.198531e-11 -4.739775e-11
-3.913488e-10 6.913448e-11 -1.182272e-10 -1.794590e-10 -9.094575e-11 -1.969499e-11
-3.958842e-10 2.176570e-11 -3.341238e-11 -1.249685e-10 -4.485723e-11 -2.573342e-11
-3.244223e-10 -3.090950e-11 -7.700862e-11 -2.095200e-10 4.259704e-12 1.083600e-11
-7.286838e-11 9.974155e-11 -6.342038e-12 -9.934581e-12 -2.537970e-12 -1.628517e-12
-6.597833e-11 8.607159e-11 -6.738610e-12 -3.009926e-11 -6.083356e-12 -8.109624e-13
-6.967893e-11 9.967316e-11 -7.288947e-12 -1.824940e-11 -2.511935e-12 -3.445522e-12
-2.436531e-10 3.249747e-10 -6.257972e-10 -3.902194e-10 -4.306244e-11 -2.947398e-11
-8.958523e-11 1.024727e-10 -6.351586e-12 -2.107203e-11 -2.225664e-12 -4.570344e-12
1.170826e-10 -5.813918e-10 1.305422e-10 -1.460435e-10 2.136558e-11 -8.940820e-12
1.894258e-10 -7.591936e-10 1.268843e-10 -1.336996e-10 -2.087552e-12 -9.407752e-14
1.285951e-10 -6.135061e-10 9.134427e-11 -1.688976e-10 4.183903e-11 1.155721e-12
1.918590e-10 -6.473346e-10 8.631984e-11 -1.665269e-10 7.944756e-12 -3.885212e-12
1.898446e-10 -6.965744e-10 1.081943e-10 -1.529006e-10 2.468714e-11 -1.556755e-12
1.186917e-10 -5.558620e-11 -2.277467e-11 4.485456e-11 2.622569e-12 1.364819e-11
-2.964429e-10 -2.574114e-10 8.364820e-11 -1.474723e-10 -6.445705e-11 -2.142508e-11
-1.972431e-10 -2.064020e-10 1.192693e-10 -2.080496e-10 -3.520961e-12 -2.148037e-11
-1.969713e-10 -2.919638e-10 7.458656e-11 -1.305329e-10 -3.284314e-11 -2.194656e-11
-2.769340e-10 -1.649989e-10 1.176312e-10 -1.016227e-10 -5.891240e-11 9.633627e-12
-2.835279e-10 -2.648561e-10 1.101408e-10 -1.535856e-10 -7.493950e-11 -2.831790e-12
-1.937215e-10 -4.424852e-10 1.841616e-11 -1.847016e-10 -1.388376e-10 -3.959377e-11
-9.084111e-11 5.093925e-11 7.307932e-12 1.205147e-11 5.832335e-12 2.722045e-12
-1.986948e-10 1.708553e-10 -3.862111e-11 -1.522547e-10 -3.035350e-12 -1.644973e-11
-1.812537e-10 2.042553e-10 -5.071099e-11 -2.035159e-10 -3.292988e-11 1.898659e-11
-2.445089e-10 1.611458e-10 -5.430278e-11 -9.572509e-11 -1.895417e-11 1.052758e-11
-1.857270e-10 1.833107e-10 -5.658629e-11 -1.377489e-10 -6.275425e-12 -1.163492e-11
-2.036078e-10 2.342322e-10 -6.510659e-11 -1.841922e-10 -2.804645e-11 3.479084e-11
-3.522550e-09 -1.819357e-09 8.106475e-09 -1.714662e-10 6.028006e-11 1.377587e-11
-2.739157e-09 -1.302938e-09 6.859379e-09 -8.248433e-10 -6.828836e-10 5.277340e-10
-3.436738e-09 -1.874561e-09 8.192292e-09 -3.516709e-11 1.014692e-10 1.339411e-10
-3.484153e-09 -1.128278e-09 1.059549e-08 1.842933e-10 -8.254466e-10 -5.434402e-10
-3.164790e-09 -1.763769e-09 8.348174e-09 -3.130700e-10 -3.718936e-11 3.951122e-10
-4.518057e-10 3.984402e-10 -8.234657e-11 1.524539e-10 1.298898e-10 -7.261325e-11
-4.169971e-10 3.721192e-10 -8.207213e-11 1.517779e-10 1.339677e-10 -7.812506e-11
-5.171925e-10 4.210392e-10 -1.115947e-10 3.435815e-10 1.706045e-10 -1.373071e-10
9.612755e-12 -5.337952e-13 -1.890044e-12 5.170331e-11 8.427037e-12 -4.471978e-13
-5.118155e-10 5.572665e-10 -2.435110e-10 2.434271e-10 1.750053e-10 -2.354866e-10
-3.678386e-10 4.238361e-10 -6.132250e-11 6.284873e-11 1.010447e-10 -1.685782e-11
-3.070291e-10 5.495362e-10 -1.834164e-10 -2.037451e-11 1.059984e-10 -9.539081e-11
1.590155e-10 -6.694256e-11 -2.335288e-11 9.659654e-11 -1.664492e-12 1.471620e-12
1.721929e-10 -8.529177e-11 -2.508216e-11 9.032741e-11 -4.070966e-12 -6.982859e-12
1.509752e-10 -6.753487e-11 -2.288836e-11 6.958556e-11 -3.104628e-12 -9.092727e-13
1.217106e-10 -5.495682e-11 -1.852729e-11 8.275377e-11 -1.271401e-12 4.293232e-13
8.279999e-11 -6.040208e-10 -5.688339e-11 1.168815e-10 -4.278866e-11 1.593653e-11
-2.543799e-11 -3.632969e-10 -7.120426e-11 1.531174e-10 -2.267847e-11 2.311281e-11
7.651080e-11 -4.482281e-10 -3.528200e-11 1.128204e-10 -3.037592e-11 -3.369083e-12
-4.338702e-10 8.746639e-10 -4.849419e-10 -3.806386e-10 2.088050e-10 2.137578e-10
-2.123435e-11 -3.486758e-10 -2.041447e-10 2.243488e-10 -8.914736e-11 3.104433e-11
-1.929701e-11 -3.411538e-10 -1.236673e-10 2.168729e-10 -1.184728e-10 7.381802e-11
8.528622e-11 -4.788658e-10 -9.364376e-11 1.297846e-10 1.257883e-11 -2.132815e-11
1.453644e-10 -5.293508e-10 -7.478063e-11 1.823995e-10 -8.714685e-11 6.299456e-11
8.479706e-11 -6.551195e-10 -2.422507e-12 2.005768e-10 -1.177173e-10 6.366709e-11
1.078844e-10 -5.216222e-10 -1.003437e-10 2.135367e-10 -1.176883e-10 1.874412e-11
-1.705877e-10 6.982681e-11 3.245271e-11 1.499520e-11 1.668887e-12 4.853062e-14
-1.711740e-10 7.267253e-11 3.114309e-11 1.921302e-11 2.651879e-12 -5.344135e-12
-1.714058e-10 6.554157e-11 3.208189e-11 6.888545e-12 1.944528e-12 -1.952244e-12
1.217781e-10 -5.495471e-11 -2.018741e-11 8.276786e-11 2.289088e-12 1.106759e-11
1.006342e-10 -4.404299e-11 -1.786615e-11 6.341705e-11 3.329559e-12 -1.154676e-11
1.049596e-10 -4.091705e-11 -1.578426e-11 9.342827e-11 6.089795e-12 1.129452e-11
1.976721e-10 -8.721823e-11 -3.516920e-11 -5.271961e-11 -1.988409e-12 1.477929e-12
1.953637e-10 -9.357670e-11 -3.348166e-11 -5.683187e-11 -7.003731e-12 -3.577139e-13
2.349181e-10 -1.050582e-10 -3.610778e-11 -6.202625e-11 -4.013567e-12 4.688959e-12
1.987146e-10 -8.295231e-11 -3.660672e-11 -5.570555e-11 3.302358e-12 6.694645e-13
2.146185e-10 -1.010592e-10 -3.531886e-11 -2.581979e-11 8.048007e-13 -7.015721e-12
2.432117e-10 -1.166762e-10 -3.813350e-11 -3.039302e-11 -9.521828e-13 4.644174e-12
2.351008e-10 -1.229301e-10 -3.698375e-11 -3.836043e-11 -5.417888e-14 -8.568701e-13
6.093712e-10 1.173230e-10 1.672857e-10 7.394794e-10 2.573808e-11 1.991436e-10
7.758043e-10 -3.100199e-10 1.328044e-09 8.999405e-10 1.829256e-10 1.140195e-10
9.500525e-10 -3.104259e-10 3.774394e-10 7.459390e-10 1.472406e-10 1.244902e-10
7.056133e-10 -1.001248e-10 5.523542e-10 7.167946e-10 8.737522e-11 2.549405e-10
2.654872e-10 -1.131337e-10 -4.431744e-11 -7.313106e-11 2.071121e-12 7.160050e-12
1.986411e-10 -9.262480e-11 -3.404654e-11 -8.944201e-11 1.164957e-12 8.937739e-12
2.481206e-10 -1.171410e-10 -4.141176e-11 -8.931800e-11 2.026823e-12 -4.832801e-12
2.164349e-10 -9.446577e-11 -3.542722e-11 -7.445233e-11 2.758460e-12 -4.167555e-12
-3.052391e-10 -9.909962e-11 -8.378898e-11 -2.285874e-10 -4.563019e-11 -1.349545e-11