# vtk DataFile Version 2.0
Simplicial Mesh Example
ASCII
DATASET UNSTRUCTURED_GRID
POINTS 955 double
1.739130e+04 -4.000000e+05 0.000000e+00
3.431474e+04 -3.668361e+05 0.000000e+00
5.217391e+04 -4.000000e+05 0.000000e+00
-3.668348e+05 1.033122e+05 0.000000e+00
3.693733e+05 -3.529960e+05 0.000000e+00
-4.000000e+05 8.695652e+04 0.000000e+00
-2.962358e+05 -3.323448e+05 0.000000e+00
-3.357456e+05 -3.422369e+05 0.000000e+00
-2.772919e+05 -3.669732e+05 0.000000e+00
3.335574e+05 -1.858748e+05 0.000000e+00
3.000000e+05 -1.659466e+05 0.000000e+00
-1.716829e+05 -3.668361e+05 0.000000e+00
-1.913043e+05 -4.000000e+05 0.000000e+00
2.061857e+05 3.668333e+05 0.000000e+00
1.565217e+05 4.000000e+05 0.000000e+00
1.716839e+05 3.668365e+05 0.000000e+00
1.913043e+05 4.000000e+05 0.000000e+00
-8.695652e+04 4.000000e+05 0.000000e+00
-6.863978e+04 3.668364e+05 0.000000e+00
8.695652e+04 -4.000000e+05 0.000000e+00
6.864043e+04 -3.668360e+05 0.000000e+00
-1.217391e+05 -4.000000e+05 0.000000e+00
-1.373218e+05 -3.668365e+05 0.000000e+00
-1.565217e+05 -4.000000e+05 0.000000e+00
-3.668349e+05 1.375908e+05 0.000000e+00
-4.000000e+05 1.565217e+05 0.000000e+00
3.668265e+05 -1.714683e+05 0.000000e+00
4.000000e+05 -1.913043e+05 0.000000e+00
4.000000e+05 -1.565217e+05 0.000000e+00
4.000000e+05 1.565217e+05 0.000000e+00
3.668383e+05 1.722952e+05 0.000000e+00
4.000000e+05 -8.695652e+04 0.000000e+00
3.668372e+05 -1.026508e+05 0.000000e+00
4.000000e+05 -5.217391e+04 0.000000e+00
3.668380e+05 -6.826645e+04 0.000000e+00
-1.666667e+05 -3.000000e+05 0.000000e+00
3.334882e+05 -2.202831e+05 0.000000e+00
3.000000e+05 -1.994599e+05 0.000000e+00
-1.862587e+05 -3.335758e+05 0.000000e+00
-5.217391e+04 4.000000e+05 0.000000e+00
-1.739130e+04 4.000000e+05 0.000000e+00
-3.431405e+04 3.668365e+05 0.000000e+00
-1.716148e+05 3.668263e+05 0.000000e+00
-1.913043e+05 4.000000e+05 0.000000e+00
-2.059314e+05 3.667832e+05 0.000000e+00
3.316724e+05 -2.967750e+05 0.000000e+00
3.666108e+05 -2.775848e+05 0.000000e+00
3.397681e+05 -3.369212e+05 0.000000e+00
-3.335738e+05 1.866432e+05 0.000000e+00
-3.000000e+05 1.673499e+05 0.000000e+00
-3.000000e+05 2.005124e+05 0.000000e+00
-3.335722e+05 1.528704e+05 0.000000e+00
2.962288e+05 3.323792e+05 0.000000e+00
2.772894e+05 3.669850e+05 0.000000e+00
3.357389e+05 3.423035e+05 0.000000e+00
-3.422611e+05 3.357632e+05 0.000000e+00
-3.323575e+05 2.962961e+05 0.000000e+00
-3.669772e+05 2.773495e+05 0.000000e+00
-3.000000e+05 1.341874e+05 0.000000e+00
-3.335717e+05 1.191216e+05 0.000000e+00
3.668370e+05 3.487991e+04 0.000000e+00
3.668382e+05 4.985393e+02 0.000000e+00
4.000000e+05 1.739130e+04 0.000000e+00
3.335703e+05 -1.518628e+05 0.000000e+00
3.335746e+05 -1.178848e+05 0.000000e+00
3.000000e+05 -1.324332e+05 0.000000e+00
-1.185180e+05 -3.335740e+05 0.000000e+00
-1.333333e+05 -3.000000e+05 0.000000e+00
-1.000000e+05 -3.000000e+05 0.000000e+00
4.000000e+05 8.695652e+04 0.000000e+00
3.668311e+05 6.925743e+04 0.000000e+00
-6.666667e+04 -3.000000e+05 0.000000e+00
-8.466381e+04 -3.335739e+05 0.000000e+00
-5.081027e+04 -3.335738e+05 0.000000e+00
-1.092350e+01 -3.668362e+05 0.000000e+00
-1.523098e+05 3.335679e+05 0.000000e+00
-1.666667e+05 3.000000e+05 0.000000e+00
-1.861609e+05 3.335431e+05 0.000000e+00
-1.184568e+05 3.335728e+05 0.000000e+00
-1.333333e+05 3.000000e+05 0.000000e+00
-3.668344e+05 6.903915e+04 0.000000e+00
-4.000000e+05 5.217391e+04 0.000000e+00
-3.668332e+05 3.476756e+04 0.000000e+00
3.667880e+05 2.064991e+05 0.000000e+00
4.000000e+05 1.913043e+05 0.000000e+00
4.000000e+05 2.260870e+05 0.000000e+00
3.668383e+05 -3.388371e+04 0.000000e+00
1.695789e+04 3.335742e+05 0.000000e+00
3.333333e+04 3.000000e+05 0.000000e+00
5.081153e+04 3.335742e+05 0.000000e+00
-6.866241e+04 -3.668363e+05 0.000000e+00
-5.217391e+04 -4.000000e+05 0.000000e+00
-3.433659e+04 -3.668363e+05 0.000000e+00
8.466523e+04 3.335742e+05 0.000000e+00
6.666667e+04 3.000000e+05 0.000000e+00
-3.650927e+05 -2.750990e+05 0.000000e+00
1.373228e+05 3.668367e+05 0.000000e+00
-1.029893e+05 -3.668364e+05 0.000000e+00
-2.061853e+05 -3.668319e+05 0.000000e+00
3.679246e+05 -3.150758e+05 0.000000e+00
4.000000e+05 -2.956522e+05 0.000000e+00
-3.668488e+05 -6.807684e+04 0.000000e+00
-3.668495e+05 -1.024032e+05 0.000000e+00
-3.777286e+05 3.768122e+05 0.000000e+00
-3.731516e+05 3.486385e+05 0.000000e+00
8.460407e+04 -3.335732e+05 0.000000e+00
1.000000e+05 -3.000000e+05 0.000000e+00
1.184575e+05 -3.335722e+05 0.000000e+00
-4.000000e+05 -2.608696e+05 0.000000e+00
-3.668282e+05 4.980022e+02 0.000000e+00
3.000000e+05 1.620150e+03 0.000000e+00
1.523100e+05 -3.335678e+05 0.000000e+00
1.666667e+05 -3.000000e+05 0.000000e+00
1.861576e+05 -3.335456e+05 0.000000e+00
-2.411432e+05 -3.668207e+05 0.000000e+00
-2.260870e+05 -4.000000e+05 0.000000e+00
-3.328022e+05 -2.535374e+05 0.000000e+00
2.260870e+05 4.000000e+05 0.000000e+00
3.335746e+05 5.195984e+04 0.000000e+00
3.000000e+05 6.864685e+04 0.000000e+00
3.000000e+05 3.513350e+04 0.000000e+00
3.335698e+05 8.592243e+04 0.000000e+00
4.000000e+05 -1.217391e+05 0.000000e+00
3.335767e+05 -1.597580e+04 0.000000e+00
3.000000e+05 -3.189320e+04 0.000000e+00
4.000000e+05 -1.739130e+04 0.000000e+00
-3.335594e+05 2.207671e+05 0.000000e+00
-3.246449e+05 -3.150201e+05 0.000000e+00
-3.608008e+05 -3.135540e+05 0.000000e+00
-3.306775e+05 -2.872043e+05 0.000000e+00
-2.333333e+05 -3.000000e+05 0.000000e+00
-2.558329e+05 -3.333551e+05 0.000000e+00
-2.204932e+05 -3.335596e+05 0.000000e+00
-2.000000e+05 -3.000000e+05 0.000000e+00
1.333333e+05 -3.000000e+05 0.000000e+00
-3.000000e+05 -2.326501e+05 0.000000e+00
-3.334238e+05 -2.194600e+05 0.000000e+00
3.667086e+05 -2.411486e+05 0.000000e+00
3.331504e+05 -2.559007e+05 0.000000e+00
2.000000e+05 3.000000e+05 0.000000e+00
1.862602e+05 3.335762e+05 0.000000e+00
2.204925e+05 3.335627e+05 0.000000e+00
2.000000e+05 -3.000000e+05 0.000000e+00
3.000000e+05 2.018902e+05 0.000000e+00
3.334338e+05 2.210121e+05 0.000000e+00
-4.000000e+05 -2.260870e+05 0.000000e+00
-3.664180e+05 -2.401224e+05 0.000000e+00
-3.667926e+05 -2.056104e+05 0.000000e+00
-3.668215e+05 2.412511e+05 0.000000e+00
-4.000000e+05 2.260870e+05 0.000000e+00
3.000000e+05 3.000000e+05 0.000000e+00
3.306623e+05 2.876205e+05 0.000000e+00
-5.074947e+04 3.335740e+05 0.000000e+00
-6.666667e+04 3.000000e+05 0.000000e+00
-8.460317e+04 3.335738e+05 0.000000e+00
-4.000000e+05 -1.565217e+05 0.000000e+00
-3.668386e+05 -1.711937e+05 0.000000e+00
-3.668436e+05 -1.367793e+05 0.000000e+00
3.336147e+05 1.538073e+05 0.000000e+00
2.260870e+05 -4.000000e+05 0.000000e+00
2.059253e+05 -3.667880e+05 0.000000e+00
2.402710e+05 -3.664674e+05 0.000000e+00
4.000000e+05 1.217391e+05 0.000000e+00
3.668342e+05 1.036336e+05 0.000000e+00
1.029661e+05 -3.668356e+05 0.000000e+00
1.217391e+05 -4.000000e+05 0.000000e+00
1.372913e+05 -3.668342e+05 0.000000e+00
4.000000e+05 2.956522e+05 0.000000e+00
3.650890e+05 2.754572e+05 0.000000e+00
3.607920e+05 3.136982e+05 0.000000e+00
-3.691108e+05 3.139776e+05 0.000000e+00
-4.000000e+05 2.956522e+05 0.000000e+00
-4.000000e+05 1.217391e+05 0.000000e+00
3.668347e+05 -1.370424e+05 0.000000e+00
3.667968e+05 -2.060541e+05 0.000000e+00
1.565217e+05 -4.000000e+05 0.000000e+00
-8.695652e+04 -4.000000e+05 0.000000e+00
3.000000e+05 1.021602e+05 0.000000e+00
3.335748e+05 1.198782e+05 0.000000e+00
3.433740e+04 3.668366e+05 0.000000e+00
1.739130e+04 4.000000e+05 0.000000e+00
1.166851e+01 3.668366e+05 0.000000e+00
1.185195e+05 3.335744e+05 0.000000e+00
1.333333e+05 3.000000e+05 0.000000e+00
1.523779e+05 3.335748e+05 0.000000e+00
1.666667e+05 3.000000e+05 0.000000e+00
4.000000e+05 -2.608696e+05 0.000000e+00
-3.333333e+04 -3.000000e+05 0.000000e+00
-1.695675e+04 -3.335737e+05 0.000000e+00
-3.702024e+05 -3.502584e+05 0.000000e+00
-4.000000e+05 -3.304348e+05 0.000000e+00
5.075044e+04 -3.335735e+05 0.000000e+00
3.335765e+05 -4.994471e+04 0.000000e+00
3.000000e+05 -6.540655e+04 0.000000e+00
3.335760e+05 -8.391401e+04 0.000000e+00
1.029903e+05 3.668367e+05 0.000000e+00
8.695652e+04 4.000000e+05 0.000000e+00
6.866331e+04 3.668366e+05 0.000000e+00
-3.335741e+05 -1.854110e+05 0.000000e+00
-3.335907e+05 -1.513473e+05 0.000000e+00
1.217391e+05 4.000000e+05 0.000000e+00
-1.029655e+05 3.668361e+05 0.000000e+00
-1.217391e+05 4.000000e+05 0.000000e+00
-1.372909e+05 3.668345e+05 0.000000e+00
-3.333582e+05 2.559979e+05 0.000000e+00
-1.565217e+05 4.000000e+05 0.000000e+00
-3.333333e+04 3.000000e+05 0.000000e+00
-1.689577e+04 3.335741e+05 0.000000e+00
4.000000e+05 -2.260870e+05 0.000000e+00
4.000000e+05 5.217391e+04 0.000000e+00
-3.000000e+05 -3.000000e+05 0.000000e+00
-2.666667e+05 -3.000000e+05 0.000000e+00
2.749236e+05 -3.652724e+05 0.000000e+00
2.956522e+05 -4.000000e+05 0.000000e+00
-2.260870e+05 4.000000e+05 0.000000e+00
3.246361e+05 3.151522e+05 0.000000e+00
-2.956522e+05 -4.000000e+05 0.000000e+00
-3.139562e+05 -3.691022e+05 0.000000e+00
-3.335708e+05 5.163284e+04 0.000000e+00
-3.000000e+05 6.786232e+04 0.000000e+00
-3.335713e+05 8.537688e+04 0.000000e+00
-3.502741e+05 3.702051e+05 0.000000e+00
-3.000000e+05 -1.653002e+05 0.000000e+00
3.139513e+05 3.691251e+05 0.000000e+00
2.956522e+05 4.000000e+05 0.000000e+00
3.668475e+05 1.379968e+05 0.000000e+00
1.716142e+05 -3.668268e+05 0.000000e+00
4.000000e+05 -3.652174e+05 0.000000e+00
4.000000e+05 -4.000000e+05 0.000000e+00
1.913043e+05 -4.000000e+05 0.000000e+00
-2.200076e+05 3.334178e+05 0.000000e+00
-2.000000e+05 3.000000e+05 0.000000e+00
3.486284e+05 3.731663e+05 0.000000e+00
3.701971e+05 3.502998e+05 0.000000e+00
-3.668327e+05 -3.377970e+04 0.000000e+00
3.000000e+05 1.356736e+05 0.000000e+00
-1.523763e+05 -3.335744e+05 0.000000e+00
-2.873505e+05 3.306746e+05 0.000000e+00
-3.000000e+05 3.000000e+05 0.000000e+00
3.000000e+05 -9.891990e+04 0.000000e+00
-4.000000e+05 -2.956522e+05 0.000000e+00
-2.956522e+05 4.000000e+05 0.000000e+00
-2.752247e+05 3.650898e+05 0.000000e+00
-3.136055e+05 3.608027e+05 0.000000e+00
-3.000000e+05 -2.663251e+05 0.000000e+00
-3.000000e+05 1.010248e+05 0.000000e+00
-3.000000e+05 2.336749e+05 0.000000e+00
[...]
POINT_DATA 955
VECTORS displacement double
5.281135e-05 0.000000e+00 6.815301e-06
5.183831e-05 -9.086313e-06 5.730772e-06
5.199162e-05 0.000000e+00 7.266259e-06
-6.060565e-06 4.015366e-05 -1.461795e-05
3.126706e-06 5.819294e-06 -3.422017e-07
0.000000e+00 2.945842e-05 -1.371139e-05
-3.006548e-05 -1.985869e-05 -4.942026e-07
-2.122437e-05 -5.724544e-06 5.560301e-06
-2.997301e-05 -1.412775e-05 4.963609e-06
-6.821507e-06 1.586957e-05 -3.197313e-06
-1.323422e-05 1.618317e-05 -3.756174e-06
-8.181525e-06 -3.462370e-05 -2.998195e-06
-1.493416e-05 0.000000e+00 2.411789e-06
3.654041e-05 -1.219330e-06 6.380733e-06
4.601096e-05 0.000000e+00 8.559286e-06
4.277538e-05 1.801797e-07 7.781654e-06
3.992082e-05 0.000000e+00 7.081850e-06
3.858449e-05 0.000000e+00 2.022084e-05
4.307282e-05 2.288638e-05 1.916828e-05
4.839703e-05 0.000000e+00 6.891517e-06
4.934999e-05 -4.053710e-06 6.064098e-06
1.488188e-05 0.000000e+00 1.331947e-06
7.380020e-06 -3.604768e-05 -3.097044e-06
-5.115652e-07 0.000000e+00 1.388281e-06
-1.012199e-05 4.553468e-05 -1.038463e-05
0.000000e+00 4.159177e-05 -5.530763e-06
-3.987502e-06 1.463031e-05 -3.389895e-06
0.000000e+00 1.508604e-05 -2.997512e-06
0.000000e+00 1.363834e-05 -3.635404e-06
0.000000e+00 -1.729856e-05 -8.233894e-07
2.111717e-08 -1.722268e-05 -4.336079e-07
0.000000e+00 7.027350e-06 -4.421683e-06
-6.937630e-06 9.067725e-06 -4.376745e-06
0.000000e+00 2.475001e-06 -4.551448e-06
-7.735499e-06 4.779331e-06 -4.589662e-06
-1.220935e-05 -1.252666e-04 -4.303307e-05
-3.208463e-06 1.605977e-05 -2.437244e-06
-7.951466e-06 1.712063e-05 -2.922312e-06
-1.681842e-05 -6.913448e-05 -1.591321e-05
4.692053e-05 0.000000e+00 1.914969e-05
5.307881e-05 0.000000e+00 1.783169e-05
5.022103e-05 1.940735e-05 1.791349e-05
1.327033e-05 2.639983e-05 2.116537e-05
8.635155e-06 0.000000e+00 2.209207e-05
4.144736e-06 2.487425e-05 2.140404e-05
4.079621e-06 1.205630e-05 -8.320949e-07
1.077865e-06 1.317341e-05 -1.353018e-06
5.634140e-06 7.838935e-06 -3.422686e-07
-2.088668e-05 6.634163e-05 -4.308825e-06
-3.107352e-05 9.913491e-05 -1.788157e-05
-2.706235e-05 8.862170e-05 -6.124255e-06
-2.177177e-05 6.905154e-05 -1.303035e-05
1.814954e-05 -6.322310e-06 3.636263e-06
2.301543e-05 -2.867387e-06 4.333218e-06
1.136680e-05 -5.925722e-06 3.179906e-06
-7.219263e-06 2.605653e-05 2.045430e-05
-1.058995e-05 4.150605e-05 1.698225e-05
-6.855575e-06 4.004799e-05 1.527205e-05
-3.257071e-05 1.097520e-04 -2.941814e-05
-1.837521e-05 6.849222e-05 -1.925313e-05
-6.653478e-06 -9.126349e-06 -3.820906e-06
-7.609805e-06 -4.744045e-06 -4.317410e-06
0.000000e+00 -7.016698e-06 -4.041076e-06
-1.016341e-05 1.422648e-05 -3.872404e-06
-1.306657e-05 1.129518e-05 -4.410336e-06
-1.829505e-05 1.375601e-05 -4.423277e-06
1.447581e-05 -7.486620e-05 -1.591532e-05
4.967366e-06 -1.289919e-04 -4.329644e-05
2.206359e-05 -1.198125e-04 -3.827793e-05
0.000000e+00 -1.428850e-05 -2.688990e-06
-5.337053e-06 -1.274930e-05 -3.115637e-06
3.473047e-05 -9.958669e-05 -2.963438e-05
2.937461e-05 -6.699251e-05 -1.274143e-05
4.048469e-05 -5.405175e-05 -8.225719e-06
5.085695e-05 -1.549760e-05 4.546490e-06
1.715055e-05 5.393987e-05 1.840832e-05
9.393943e-06 8.284768e-05 1.294803e-05
6.993741e-06 5.220710e-05 1.883171e-05
2.794649e-05 5.276414e-05 1.799086e-05
2.075192e-05 8.314401e-05 1.265737e-05
2.233357e-06 3.339293e-05 -1.422549e-05
0.000000e+00 2.359236e-05 -1.232760e-05
1.488979e-05 2.697231e-05 -8.543184e-06
1.634332e-06 -1.648822e-05 5.018853e-07
0.000000e+00 -1.697091e-05 4.870281e-08
0.000000e+00 -1.573830e-05 8.847330e-07
-7.945278e-06 3.480497e-08 -4.574443e-06
5.482525e-05 2.636839e-05 1.450091e-05
5.302251e-05 3.327915e-05 1.197393e-05
5.497643e-05 1.882325e-05 1.306497e-05
3.631742e-05 -2.935527e-05 -4.325389e-08
4.161942e-05 0.000000e+00 4.055498e-06
4.583313e-05 -2.268423e-05 2.425034e-06
5.286355e-05 1.206592e-05 1.144615e-05
5.143054e-05 2.229389e-05 1.095105e-05
-1.290895e-05 3.270222e-06 -7.562669e-06
4.833946e-05 2.119693e-06 9.372551e-06
2.296328e-05 -3.421229e-05 -2.089824e-06
-2.049804e-05 -2.952363e-05 -1.106165e-06
2.390030e-06 9.949457e-06 -7.855362e-07
0.000000e+00 1.165129e-05 -1.081281e-06
2.834459e-05 2.203148e-05 -4.274222e-06
1.933365e-05 2.122294e-05 -1.276546e-05
-2.525048e-06 8.700006e-06 2.163076e-05
-3.467883e-06 1.879939e-05 2.084194e-05
4.300691e-05 -4.050263e-06 3.793711e-06
3.293891e-05 -5.976461e-07 1.401203e-06
3.755485e-05 1.977149e-06 3.902363e-06
0.000000e+00 1.047592e-05 -9.007165e-06
2.613219e-05 2.357826e-05 -1.501346e-06
-2.352786e-05 -4.427281e-06 -4.752940e-06
3.160837e-05 5.697658e-06 3.363575e-06
2.205976e-05 1.016388e-05 1.625296e-06
2.570779e-05 7.722110e-06 2.542227e-06
-2.811147e-05 -2.200709e-05 1.955495e-06
-2.458120e-05 0.000000e+00 4.197064e-06
-2.391894e-05 -1.408992e-05 -2.023893e-05
3.344618e-05 0.000000e+00 5.844401e-06
-1.210919e-05 -1.099706e-05 -3.630554e-06
-1.622116e-05 -1.263720e-05 -3.408228e-06
-2.054635e-05 -8.948991e-06 -4.178205e-06
-9.167629e-06 -1.411429e-05 -2.849826e-06
0.000000e+00 1.085719e-05 -4.128522e-06
-1.586423e-05 -2.242779e-06 -4.714274e-06
-2.484898e-05 5.962542e-07 -5.073143e-06
0.000000e+00 -2.356075e-06 -4.428096e-06
-1.799815e-05 6.114017e-05 4.049390e-06
-2.498136e-05 -1.208661e-05 -1.942727e-06
-1.404327e-05 1.129490e-07 1.725705e-06
-2.453412e-05 -1.269141e-05 -9.398503e-06
-3.470023e-05 -8.218417e-05 -2.901988e-05
-3.221928e-05 -3.973013e-05 -6.459619e-06
-2.748915e-05 -5.578741e-05 -1.201802e-05
-2.667079e-05 -1.078860e-04 -3.818202e-05
2.739080e-05 6.253114e-06 1.864343e-06
-3.438485e-05 -5.292222e-05 -4.110512e-05
-2.117000e-05 -1.616616e-05 -2.952499e-05
-6.347405e-07 1.506726e-05 -2.009824e-06
3.396486e-07 1.490365e-05 -1.642906e-06
3.232099e-05 -3.585710e-06 5.604285e-06
3.819093e-05 -1.135467e-06 6.780589e-06
3.199245e-05 -3.445336e-06 5.557109e-06
1.721124e-05 1.207571e-05 1.086901e-06
4.776978e-06 -1.565236e-05 7.657126e-07
4.689799e-06 -1.551087e-05 9.676520e-07
0.000000e+00 1.549896e-05 -1.701004e-05
-1.128803e-05 7.127043e-06 -1.636938e-05
-7.966511e-06 1.123554e-05 -2.320505e-05
-8.518760e-06 4.638481e-05 1.003875e-05
0.000000e+00 4.421091e-05 8.031670e-06
1.539628e-05 -9.125772e-06 3.090936e-06
9.907284e-06 -1.090629e-05 2.507625e-06
4.632429e-05 4.239222e-05 1.669947e-05
4.153841e-05 6.988823e-05 1.280780e-05
3.808084e-05 4.870493e-05 1.746668e-05
0.000000e+00 2.480405e-05 -2.313247e-05
-1.517852e-06 1.564977e-05 -2.524152e-05
8.666747e-06 1.885909e-05 -2.115882e-05
-1.915109e-06 -1.698142e-05 -9.148615e-07
2.375657e-05 0.000000e+00 2.289540e-06
2.614436e-05 4.191438e-06 2.703349e-06
2.035033e-05 4.501244e-06 1.718976e-06
0.000000e+00 -1.637983e-05 -1.809617e-06
-3.639624e-06 -1.539695e-05 -2.268662e-06
4.467925e-05 -4.272264e-07 5.775401e-06
4.294253e-05 0.000000e+00 5.795432e-06
3.876057e-05 2.034322e-06 4.899953e-06
0.000000e+00 -1.078283e-05 2.305278e-06
4.548428e-06 -1.233940e-05 2.040168e-06
6.348771e-06 -8.960180e-06 2.659629e-06
-4.812462e-06 3.007353e-05 1.883236e-05
0.000000e+00 3.345874e-05 1.730414e-05
0.000000e+00 3.618095e-05 -1.113912e-05
-5.613302e-06 1.242531e-05 -3.943134e-06
-2.321173e-06 1.552788e-05 -2.723919e-06
3.657314e-05 0.000000e+00 4.625838e-06
2.974802e-05 0.000000e+00 2.447279e-06
-1.110193e-05 -1.504891e-05 -2.476441e-06
-5.604721e-06 -1.613607e-05 -1.941559e-06
5.648307e-05 1.146395e-05 1.480137e-05
5.626799e-05 0.000000e+00 1.596324e-05
5.471564e-05 1.537732e-05 1.650939e-05
4.901633e-05 6.483284e-06 9.790198e-06
4.338716e-05 5.815308e-06 8.247627e-06
4.396154e-05 2.108950e-06 8.205233e-06
3.800801e-05 3.520211e-07 6.860425e-06
0.000000e+00 1.402948e-05 -1.675419e-06
4.202593e-05 -7.420176e-05 -1.944012e-05
4.691899e-05 -3.936247e-05 -3.575992e-06
-1.037564e-05 2.954414e-07 8.184343e-06
0.000000e+00 2.747858e-06 5.782418e-06
4.710223e-05 -1.287149e-05 2.712576e-06
-1.605764e-05 2.664551e-06 -4.876655e-06
-2.432102e-05 5.630409e-06 -5.126597e-06
-1.511289e-05 7.321865e-06 -4.772835e-06
5.282170e-05 4.660188e-06 1.112927e-05
5.495046e-05 0.000000e+00 1.218303e-05
5.570900e-05 7.801733e-06 1.297793e-05
-1.222626e-05 -1.389313e-05 -3.281560e-05
2.948057e-06 -1.043516e-05 -2.808679e-05
5.116794e-05 0.000000e+00 1.031016e-05
3.384116e-05 2.534268e-05 2.006320e-05
2.864793e-05 0.000000e+00 2.117444e-05
2.352936e-05 2.661287e-05 2.070347e-05
-1.449066e-05 5.388498e-05 1.093908e-05
1.819503e-05 0.000000e+00 2.165926e-05
4.835361e-05 5.836520e-05 1.289251e-05
5.198610e-05 3.477238e-05 1.573331e-05
0.000000e+00 1.520255e-05 -2.372873e-06
0.000000e+00 -1.108949e-05 -3.458621e-06
-3.132758e-05 -2.975211e-05 -1.132297e-05
-3.563993e-05 -5.346774e-05 -1.900324e-05
1.501163e-05 4.675912e-06 9.036194e-07
1.286945e-05 0.000000e+00 6.442052e-07
7.512252e-07 0.000000e+00 2.237523e-05
1.231502e-05 -8.366338e-06 2.984140e-06
-2.772275e-05 0.000000e+00 8.582516e-06
-2.526814e-05 -6.180709e-06 8.001282e-06
9.808417e-06 5.942208e-05 -1.118192e-05
-9.284834e-06 1.187700e-04 -2.507557e-05
-7.761453e-06 6.516393e-05 -1.907148e-05
-5.271690e-06 1.190982e-05 2.154198e-05
-1.695832e-05 -7.034380e-05 -4.766713e-05
1.608812e-05 -3.060138e-06 3.667928e-06
1.993231e-05 0.000000e+00 4.048271e-06
-1.812012e-06 -1.688084e-05 -1.359828e-06
3.239492e-05 3.469340e-06 3.806369e-06
0.000000e+00 4.312406e-06 -3.601221e-07
0.000000e+00 0.000000e+00 -2.663327e-07
3.001655e-05 0.000000e+00 3.404538e-06
-1.314515e-06 4.805722e-05 1.926390e-05
-6.428364e-07 7.797116e-05 1.363538e-05
9.570334e-06 -2.841596e-06 3.278533e-06
5.350275e-06 -5.309518e-06 3.004127e-06
3.013415e-05 2.224789e-05 3.292637e-07
-5.618812e-06 -1.633887e-05 -1.412316e-06
-1.835469e-06 -7.567571e-05 -1.683882e-05
-9.589779e-06 3.678613e-05 1.963039e-05
-1.254073e-05 4.907014e-05 1.648835e-05
-2.209222e-05 1.013253e-05 -4.872479e-06
0.000000e+00 6.224483e-06 -8.556158e-07
-6.794333e-06 0.000000e+00 2.218798e-05
-6.590950e-06 2.005273e-05 2.158729e-05
-7.603716e-06 1.844693e-05 2.144287e-05
-3.439833e-05 -4.042556e-05 -2.573601e-05
-2.707133e-05 1.187697e-04 -3.440770e-05
-2.203699e-05 7.655549e-05 3.736320e-06
5.228107e-05 6.810399e-06 9.556564e-06
2.748946e-05 -1.701268e-06 -1.129210e-05
4.026280e-06 0.000000e+00 -1.257496e-07
6.441753e-05 1.907135e-05 2.212748e-05
9.925962e-05 -7.395339e-06 6.097411e-05
-6.085381e-06 0.000000e+00 2.193495e-05
1.055753e-04 3.440579e-05 7.375610e-05
5.919477e-05 3.245826e-05 2.042787e-05
2.990983e-05 -2.185055e-06 5.243245e-06
7.575024e-06 9.333776e-06 -2.104015e-07
6.315395e-06 3.774637e-06 -1.157823e-07
9.881674e-06 5.036813e-06 2.142775e-07
-1.762335e-05 6.335994e-05 1.118979e-05
0.000000e+00 4.035166e-05 1.342113e-05
-3.154362e-05 -6.747585e-05 -5.149233e-05
3.125823e-06 -1.481100e-05 1.329149e-06
0.000000e+00 -1.360753e-05 1.669910e-06
7.437999e-06 -1.351605e-05 1.813075e-06
1.804031e-05 0.000000e+00 1.367695e-06
1.094153e-05 8.935757e-06 2.245759e-07
1.528729e-05 8.829194e-06 8.730841e-07
9.455282e-06 1.256947e-05 -3.304324e-08
1.295010e-05 1.249411e-05 4.726715e-07
2.018503e-05 8.568452e-06 1.641264e-06
-7.047275e-06 4.250606e-05 1.939921e-05
2.399758e-06 1.493236e-05 -1.285206e-06
-2.593546e-06 1.657284e-05 -2.082667e-06
-1.107235e-05 4.894318e-05 -3.690169e-06
-1.027178e-05 4.934880e-05 3.527600e-06
2.096418e-05 -8.072650e-06 3.777949e-06
2.543762e-05 -5.042343e-06 4.536991e-06
2.649131e-05 -6.268264e-06 4.542858e-06
-2.890080e-05 0.000000e+00 6.668002e-06
0.000000e+00 4.451039e-05 1.449821e-06
-1.217665e-05 5.931086e-05 1.577721e-05
-7.842507e-06 6.997168e-05 1.462254e-05
-1.456574e-05 -6.949581e-06 -4.308423e-06
1.264662e-05 -1.180935e-05 2.415048e-06
9.115601e-06 -1.392241e-05 1.662798e-06
0.000000e+00 2.661237e-05 -1.915385e-05
-4.425843e-06 0.000000e+00 2.235954e-05
-9.880862e-06 3.437626e-05 1.948038e-05
2.672961e-05 0.000000e+00 4.850819e-06
7.282868e-05 7.386689e-05 4.422261e-05
3.969534e-05 4.546684e-05 6.382046e-06
2.865181e-05 1.034938e-04 6.241265e-06
4.803039e-05 1.310278e-05 9.668113e-06
-2.726336e-06 2.259414e-05 2.155371e-05
5.211543e-05 4.567638e-05 1.267376e-05
8.209159e-06 0.000000e+00 1.197554e-07
3.203488e-05 7.866160e-05 1.265642e-05
3.820160e-05 -1.152594e-05 -3.951916e-07
4.880378e-05 -2.456043e-05 3.461235e-07
0.000000e+00 0.000000e+00 1.171626e-05
0.000000e+00 1.448014e-06 1.029447e-05
-8.136247e-06 2.812169e-08 1.093925e-05
4.436498e-05 -4.901889e-05 -1.053582e-05
1.572560e-06 -1.674497e-05 6.502112e-08
0.000000e+00 2.390267e-05 1.990694e-05
-1.683961e-05 -1.643780e-06 9.879176e-06
-2.106434e-05 0.000000e+00 1.023825e-05
0.000000e+00 1.247537e-05 2.130276e-05
4.329138e-06 -2.412238e-06 3.122325e-06
1.316342e-05 0.000000e+00 3.524219e-06
0.000000e+00 2.056383e-05 -8.487866e-06
0.000000e+00 2.633351e-05 -1.283788e-05
0.000000e+00 2.395025e-05 -7.870714e-06
0.000000e+00 2.060541e-05 -2.231790e-05
0.000000e+00 8.233018e-06 -6.396585e-07
5.679413e-05 0.000000e+00 1.410927e-05
4.936197e-05 0.000000e+00 5.800544e-06
0.000000e+00 -7.374927e-06 2.758150e-06
0.000000e+00 2.135042e-05 -7.250959e-06
-1.165847e-05 0.000000e+00 1.123331e-05
0.000000e+00 0.000000e+00 2.171639e-05
6.573520e-06 0.000000e+00 3.216273e-06
4.243767e-05 -2.746326e-05 -4.193031e-06
0.000000e+00 -3.783076e-06 3.031732e-06
0.000000e+00 0.000000e+00 3.124089e-06
-3.637617e-06 0.000000e+00 2.177256e-05
6.467247e-06 1.199327e-05 -5.407046e-07
3.145422e-05 -5.493214e-05 -1.721677e-06
1.435015e-05 -6.398142e-05 -2.307271e-05
3.966401e-05 -2.218550e-05 1.328183e-06
-1.188139e-06 -1.680995e-05 -6.246025e-07
8.036229e-07 -1.661179e-05 -1.265444e-07
7.705447e-05 -2.418405e-05 4.383711e-05
5.491403e-05 -1.461231e-05 1.557430e-05
2.373952e-06 -1.612198e-05 2.426501e-07
-2.872383e-06 -1.652286e-05 -8.613447e-07
4.585547e-05 -3.308596e-05 9.645430e-06
4.133641e-05 -5.102684e-05 8.873087e-06
5.181861e-05 -4.506637e-05 2.012412e-05
-7.096381e-07 -1.666168e-05 -4.634254e-07
-1.373124e-07 -1.647097e-05 -2.961635e-07
3.789023e-07 -1.654847e-05 -2.157887e-07
6.423620e-05 -3.456700e-05 3.259354e-05
5.467785e-05 -2.789186e-05 1.834085e-05
1.133425e-06 -1.631724e-05 -3.103315e-08
-1.488554e-06 -1.652125e-05 -5.690921e-07
2.095768e-05 2.542044e-04 -8.633645e-05
2.340329e-05 1.616606e-04 -4.166524e-05
1.729083e-05 9.728102e-06 3.010817e-06
1.470408e-05 2.273334e-05 1.203907e-06
2.131955e-06 -1.384836e-05 4.808778e-07
-5.922816e-07 -1.164857e-05 4.784404e-07
8.150137e-06 -6.946255e-06 1.849912e-06
1.754626e-05 -6.281164e-06 3.162387e-06
3.420691e-05 8.979617e-05 -8.293986e-06
8.359312e-06 7.272148e-05 -1.054485e-05
4.899892e-05 3.400430e-05 9.622662e-06
5.019450e-05 4.957774e-05 9.597003e-06
3.580866e-05 4.392249e-05 3.021265e-06
4.517847e-05 4.904325e-05 6.075672e-06
-4.251520e-05 1.765065e-04 -5.343201e-05
6.077289e-05 4.182875e-03 -1.344962e-03
-1.685643e-05 1.430386e-03 -5.718859e-04
-1.641344e-04 2.143858e-03 -6.154255e-04
4.505572e-05 1.749250e-03 -6.434588e-04
4.853376e-05 6.659026e-05 8.957826e-06
4.381099e-05 8.384963e-05 7.496275e-06
3.554307e-05 9.862467e-05 5.946174e-06
-3.871819e-05 2.020557e-04 -5.761517e-05
-2.812802e-05 2.039664e-04 -4.491537e-05
-1.364971e-05 1.762852e-04 -2.685621e-05
-1.424341e-05 2.383373e-04 -5.817756e-05
-2.993110e-05 2.767261e-04 -8.230750e-05
9.288011e-08 1.437680e-04 -8.679512e-06
4.574191e-05 2.093704e-05 8.972283e-06
4.119305e-05 1.052221e-05 7.909993e-06
1.131152e-05 4.168169e-05 -2.323227e-06
-1.367492e-04 1.065608e-03 -7.937500e-05
-2.428315e-05 4.202844e-04 -1.621066e-05
-5.715028e-05 3.590117e-04 -8.946511e-05
-9.342550e-05 6.917596e-04 -1.754815e-04
-2.264959e-04 3.432677e-03 -1.011263e-04
-1.355099e-04 1.146509e-03 -3.450505e-04
-5.318318e-05 1.163084e-03 -4.343530e-04
1.831603e-05 1.794086e-04 -2.716097e-05
3.027858e-05 1.571590e-04 -2.102454e-05
1.980778e-05 2.751572e-04 -8.779670e-05
1.025738e-05 -1.356280e-05 1.635322e-06
4.071668e-06 -1.509717e-05 5.977472e-07
5.670350e-05 1.739219e-04 5.753978e-05
1.398061e-04 9.157630e-05 1.601881e-04
2.416080e-05 1.089646e-04 4.749531e-06
-1.712508e-05 2.135745e-04 -3.254343e-05
2.557297e-05 -6.662690e-06 4.374401e-06
3.071593e-05 -2.883914e-06 5.381667e-06
-1.899785e-05 7.882231e-05 -1.153135e-05
-1.055528e-05 4.357863e-05 -3.587826e-06
8.984708e-06 -1.067040e-05 1.699634e-06
9.999406e-06 -1.258557e-05 1.673098e-06
-3.935582e-05 1.494451e-04 -3.764318e-05
-3.350860e-05 1.250389e-04 -1.921696e-05
1.561433e-05 -1.143045e-05 2.685946e-06
3.001585e-05 1.822796e-04 -4.215375e-05
3.749919e-05 1.275080e-04 -1.344342e-05
3.602732e-05 2.690680e-06 6.619956e-06
-4.765371e-06 -8.098992e-06 3.963878e-07
-1.028100e-05 -2.187442e-06 2.654621e-07
5.743834e-06 -8.799693e-07 1.855075e-06
1.685140e-04 3.778212e-07 1.848910e-04
-2.929322e-05 1.449855e-04 -1.964857e-05
-2.699387e-05 1.052951e-04 -5.092487e-06
2.759561e-05 6.390382e-05 -4.208560e-06
2.470179e-05 3.784891e-05 7.426474e-07
2.157596e-05 -8.762620e-06 3.706378e-06
2.353900e-05 1.019753e-04 -1.628000e-05
3.351650e-05 1.254132e-04 -2.011041e-05
-2.019665e-05 8.385230e-05 6.899763e-06
-1.417385e-05 8.510704e-05 9.283315e-06
5.830947e-06 2.531088e-04 -6.721208e-05
1.764873e-05 3.995433e-04 -1.544067e-04
4.662840e-06 1.205971e-04 -2.741726e-05
1.151289e-05 1.119234e-04 4.471249e-06
-1.786277e-05 6.562549e-06 4.676067e-07
-9.702952e-06 9.806774e-05 7.015902e-06
-2.021793e-05 1.144609e-04 -1.927014e-06
1.753119e-05 -1.032682e-05 2.958060e-06
-1.240579e-04 2.711622e-04 -4.013041e-05
3.102033e-04 9.766398e-05 4.668161e-04
-4.772365e-05 2.291895e-04 -7.049451e-05
4.361921e-05 9.300345e-05 9.841174e-07
4.045125e-05 9.513151e-05 -5.153338e-06
-1.497407e-04 5.621865e-04 -1.476711e-04
-2.770380e-05 2.019080e-05 3.935962e-07
-3.844489e-05 1.830766e-04 -4.424272e-05
-4.096210e-05 2.627512e-04 -8.002358e-05
4.400776e-04 7.597034e-04 6.469257e-04
1.337996e-06 8.233751e-06 1.147365e-06
-3.759259e-06 2.219928e-05 -3.594180e-07
2.020455e-05 7.438098e-07 3.702790e-06
-3.466522e-05 4.575082e-04 -1.631614e-04
-3.414399e-07 1.082106e-04 5.085232e-06
3.789593e-05 1.157439e-04 -3.008094e-06
2.314477e-06 2.033012e-04 -6.168971e-05
-3.750845e-05 2.464990e-04 -7.176833e-05
-2.940248e-05 1.384833e-04 -2.978928e-05
3.223709e-05 6.168722e-06 5.718572e-06
3.716356e-05 1.655702e-05 6.643086e-06
1.528061e-04 3.348359e-04 2.156702e-04
-5.672315e-05 2.890715e-04 -9.234869e-05
4.611959e-05 7.042938e-05 4.136842e-06
6.977689e-06 5.860884e-04 -2.316026e-04
-3.980898e-05 3.662739e-04 -1.271628e-04
-5.696544e-05 5.293678e-04 -1.968470e-04
-3.870966e-05 7.346355e-04 -2.837559e-04
-2.633650e-05 4.856935e-04 -1.830483e-04
-8.874144e-05 1.447607e-04 -1.030660e-05
-5.968860e-05 7.899428e-05 -2.365571e-06
-4.129526e-05 4.225289e-05 9.482182e-08
1.392855e-06 9.141616e-04 -3.551773e-04
-6.087182e-08 3.418011e-04 -1.250796e-04
1.435060e-05 1.444312e-04 -8.612217e-06
1.277865e-06 1.895082e-04 -3.128261e-05
2.787545e-05 1.339669e-04 -6.605303e-06
-5.543133e-05 3.507937e-04 -1.200094e-04
-8.015638e-05 7.825858e-04 -2.756346e-04
1.491311e-06 3.768863e-04 -1.336487e-04
2.947669e-05 2.365650e-05 4.081161e-06
3.987034e-05 6.832615e-05 -3.867074e-07
2.713554e-05 -1.531232e-06 4.776281e-06
-1.144731e-05 1.329928e-04 -6.049955e-06
-7.376023e-05 4.849384e-04 -1.605434e-04
-1.819012e-05 3.284939e-04 -1.076019e-04
4.169086e-05 3.096714e-05 6.687527e-06
-2.159980e-05 1.544298e-04 -1.893769e-05
1.955871e-06 9.497029e-04 -3.660293e-04
1.553115e-05 -9.639472e-06 2.679456e-06
2.781895e-05 1.061755e-05 4.716272e-06
2.267495e-05 -6.682897e-06 3.885968e-06
2.217249e-05 2.097188e-04 -4.838100e-05
-6.526859e-06 5.834828e-04 -2.210199e-04
7.014491e-04 2.892262e-04 1.053184e-03
1.287291e-04 -5.923963e-05 1.510350e-04
1.025565e-04 -4.136675e-05 9.037195e-05
-1.954921e-05 -2.757067e-06 7.331425e-08
1.728577e-04 -6.948583e-05 2.688978e-04
-1.523828e-05 -5.626500e-06 -2.245076e-07
-2.936755e-05 5.634392e-06 9.351653e-07
-2.102110e-04 2.527392e-04 1.951928e-05
2.351469e-04 -4.344501e-05 4.185514e-04
-3.503600e-04 5.477596e-04 -3.790382e-05
4.179145e-04 -3.113696e-05 7.495686e-04
9.902017e-04 1.342689e-03 1.331201e-03
-4.700959e-04 1.562715e-03 -5.121168e-04
1.718998e-05 3.560944e-03 -1.200339e-03
-3.916663e-06 -1.311530e-05 -1.406200e-07
7.167674e-07 -1.544415e-05 4.492465e-08