# vtk DataFile Version 2.0
Simplicial Mesh Example
ASCII
DATASET UNSTRUCTURED_GRID
POINTS 9490 double
4.132646e+04 -3.761110e+05 -2.495947e+04
1.739130e+04 -4.000000e+05 0.000000e+00
1.424943e+04 -3.757412e+05 -2.497841e+04
3.478261e+04 -4.000000e+05 -2.478841e+04
3.431474e+04 -3.668361e+05 0.000000e+00
6.536071e+04 -3.800007e+05 -2.495579e+04
5.217391e+04 -4.000000e+05 0.000000e+00
5.217391e+04 -4.000000e+05 -5.000000e+04
6.848295e+04 -3.663208e+05 -5.000000e+04
1.739130e+04 -4.000000e+05 -5.000000e+04
3.422046e+04 -3.663210e+05 -5.000000e+04
-4.000000e+05 1.043476e+05 -2.478869e+04
-3.778006e+05 1.290431e+05 -2.559237e+04
-3.668348e+05 1.033122e+05 0.000000e+00
-3.750401e+05 1.075547e+05 -3.181274e+04
4.000000e+05 -3.652174e+05 -2.500000e+04
3.692598e+05 -3.333058e+05 -2.499312e+04
3.776504e+05 -3.747415e+05 -2.247043e+04
3.693733e+05 -3.529960e+05 0.000000e+00
-4.000000e+05 8.695652e+04 0.000000e+00
-3.760516e+05 8.212939e+04 -2.543564e+04
-3.482879e+05 1.253124e+05 -2.574623e+04
-3.665651e+05 9.874016e+04 -5.000000e+04
-3.495547e+05 9.060720e+04 -2.563270e+04
-3.071185e+05 -3.486990e+05 -2.261025e+04
-3.153762e+05 -3.243183e+05 -5.000000e+04
-3.287827e+05 -3.355430e+05 -2.504110e+04
-3.095113e+05 -3.153966e+05 -2.507638e+04
-2.962358e+05 -3.323448e+05 0.000000e+00
-3.357456e+05 -3.422369e+05 0.000000e+00
-2.772919e+05 -3.669732e+05 0.000000e+00
-2.934123e+05 -3.742563e+05 -2.511903e+04
-2.806419e+05 -3.463229e+05 -2.661752e+04
-3.140042e+05 -3.607419e+05 -5.000000e+04
-3.320497e+05 -3.703516e+05 -2.524928e+04
-3.224905e+05 6.841821e+04 -2.756000e+04
-3.000000e+05 4.234958e+04 -2.422604e+04
-3.000000e+05 5.362570e+04 -5.000000e+04
-3.000000e+05 7.749820e+04 -2.479801e+04
3.227610e+05 -1.685566e+05 -2.697912e+04
3.499303e+05 -1.919500e+05 -2.498446e+04
3.500600e+05 -1.567367e+05 -2.546429e+04
3.335574e+05 -1.858748e+05 0.000000e+00
3.000000e+05 -1.659466e+05 0.000000e+00
3.208602e+05 -1.947095e+05 -2.232217e+04
3.000000e+05 -1.806737e+05 -2.506219e+04
3.330650e+05 -1.842018e+05 -5.000000e+04
3.000000e+05 -1.978940e+05 -5.000000e+04
3.000000e+05 -1.638587e+05 -5.000000e+04
-1.949782e+05 -3.787045e+05 -2.503133e+04
-1.713812e+05 -3.663209e+05 -5.000000e+04
-1.725141e+05 -3.772415e+05 -2.530126e+04
-1.913043e+05 -4.000000e+05 -5.000000e+04
-1.972219e+05 -3.510331e+05 -2.499278e+04
-1.739069e+05 -4.000000e+05 -2.478809e+04
-1.716829e+05 -3.668361e+05 0.000000e+00
-1.913043e+05 -4.000000e+05 0.000000e+00
1.358880e+05 -3.243044e+05 -2.504137e+04
1.166322e+05 -3.000000e+05 -2.516475e+04
1.497984e+05 -3.000000e+05 -2.516553e+04
1.333333e+05 -3.000000e+05 -5.000000e+04
1.825802e+05 3.751615e+05 -2.720292e+04
2.119132e+05 3.796036e+05 -2.524922e+04
2.061857e+05 3.668333e+05 0.000000e+00
1.947422e+05 3.503722e+05 -2.524152e+04
1.565217e+05 4.000000e+05 0.000000e+00
1.528807e+05 3.759790e+05 -2.499953e+04
1.739069e+05 4.000000e+05 -2.478809e+04
1.716839e+05 3.668365e+05 0.000000e+00
1.913043e+05 4.000000e+05 0.000000e+00
1.565217e+05 4.000000e+05 -5.000000e+04
1.713714e+05 3.663108e+05 -5.000000e+04
1.613560e+05 3.500277e+05 -2.506640e+04
-8.982230e+04 3.792244e+05 -2.494679e+04
-6.535746e+04 3.800015e+05 -2.495585e+04
-6.848071e+04 3.663195e+05 -5.000000e+04
-8.695652e+04 4.000000e+05 -5.000000e+04
-6.956522e+04 4.000000e+05 -2.478801e+04
-9.132937e+04 3.518806e+05 -2.497956e+04
-8.695652e+04 4.000000e+05 0.000000e+00
-6.863978e+04 3.668364e+05 0.000000e+00
8.983161e+04 -3.792230e+05 -2.494676e+04
8.695652e+04 -4.000000e+05 -5.000000e+04
6.956522e+04 -4.000000e+05 -2.478801e+04
8.695652e+04 -4.000000e+05 0.000000e+00
9.134075e+04 -3.518804e+05 -2.497894e+04
6.864043e+04 -3.668360e+05 0.000000e+00
-1.485035e+05 -3.773486e+05 -2.721498e+04
-1.630495e+05 -3.485427e+05 -2.521974e+04
-1.185212e+05 -3.761066e+05 -2.504756e+04
-1.217391e+05 -4.000000e+05 -5.000000e+04
-1.370985e+05 -3.663236e+05 -5.000000e+04
-1.217391e+05 -4.000000e+05 0.000000e+00
-1.391294e+05 -4.000000e+05 -2.478846e+04
-1.373218e+05 -3.668365e+05 0.000000e+00
-1.565217e+05 -4.000000e+05 0.000000e+00
-1.276844e+05 -3.500075e+05 -2.505733e+04
-3.784905e+05 1.568709e+05 -2.476156e+04
-3.664298e+05 1.337587e+05 -5.000000e+04
-3.514457e+05 1.599418e+05 -2.483113e+04
-4.000000e+05 1.565217e+05 -5.000000e+04
-4.000000e+05 1.391294e+05 -2.478846e+04
-3.668349e+05 1.375908e+05 0.000000e+00
-4.000000e+05 1.565217e+05 0.000000e+00
3.668265e+05 -1.714683e+05 0.000000e+00
4.000000e+05 -1.913043e+05 0.000000e+00
4.000000e+05 -1.739069e+05 -2.478809e+04
4.000000e+05 -1.565217e+05 0.000000e+00
3.763528e+05 1.812702e+05 -2.493822e+04
4.000000e+05 1.565217e+05 0.000000e+00
3.764050e+05 1.528124e+05 -2.490916e+04
4.000000e+05 1.739130e+05 -2.478510e+04
3.668383e+05 1.722952e+05 0.000000e+00
3.797466e+05 2.119345e+05 -2.497186e+04
4.000000e+05 1.913043e+05 -5.000000e+04
3.662642e+05 2.068445e+05 -5.000000e+04
3.507120e+05 1.619053e+05 -2.490325e+04
3.662844e+05 1.729597e+05 -5.000000e+04
4.000000e+05 1.565217e+05 -5.000000e+04
3.776488e+05 -7.900637e+04 -2.735718e+04
3.762845e+05 -4.901174e+04 -2.508786e+04
3.663605e+05 -6.676216e+04 -5.000000e+04
3.502306e+05 -5.807827e+04 -2.511783e+04
4.000000e+05 -5.217391e+04 -5.000000e+04
3.773063e+05 -1.038824e+05 -2.578879e+04
4.000000e+05 -8.695652e+04 0.000000e+00
3.668372e+05 -1.026508e+05 0.000000e+00
4.000000e+05 -5.217391e+04 0.000000e+00
4.000000e+05 -6.956519e+04 -2.478879e+04
3.668380e+05 -6.826645e+04 0.000000e+00
4.000000e+05 -1.043476e+05 -2.478869e+04
-1.666667e+05 -3.000000e+05 -5.000000e+04
-1.833333e+05 -3.000000e+05 -2.518468e+04
-1.933582e+05 -3.216521e+05 -2.503520e+04
-1.657267e+05 -3.213415e+05 -2.506307e+04
-1.666667e+05 -3.000000e+05 0.000000e+00
3.334882e+05 -2.202831e+05 0.000000e+00
3.000000e+05 -1.994599e+05 0.000000e+00
3.000000e+05 -2.085861e+05 -2.501244e+04
-1.859359e+05 -3.331067e+05 -5.000000e+04
-1.862587e+05 -3.335758e+05 0.000000e+00
-4.132523e+04 3.761107e+05 -2.495957e+04
-3.478261e+04 4.000000e+05 -2.478841e+04
-5.217391e+04 4.000000e+05 -5.000000e+04
-1.739130e+04 4.000000e+05 -5.000000e+04
-1.424890e+04 3.757408e+05 -2.497844e+04
-3.421938e+04 3.663190e+05 -5.000000e+04
-5.217391e+04 4.000000e+05 0.000000e+00
-1.739130e+04 4.000000e+05 0.000000e+00
-3.431405e+04 3.668365e+05 0.000000e+00
-2.739007e+04 3.505180e+05 -2.498776e+04
-1.739130e+05 4.000000e+05 -2.478510e+04
-1.528672e+05 3.759826e+05 -2.500255e+04
-1.716148e+05 3.668263e+05 0.000000e+00
-1.825315e+05 3.751689e+05 -2.721318e+04
-1.913043e+05 4.000000e+05 0.000000e+00
-2.059314e+05 3.667832e+05 0.000000e+00
-2.118669e+05 3.796033e+05 -2.526514e+04
-1.612599e+05 3.500460e+05 -2.507149e+04
-1.913043e+05 4.000000e+05 -5.000000e+04
-2.056558e+05 3.663226e+05 -5.000000e+04
-1.712892e+05 3.663242e+05 -5.000000e+04
-1.565217e+05 4.000000e+05 -5.000000e+04
3.507710e+05 -3.071241e+05 -1.983709e+04
3.472371e+05 -2.783609e+05 -2.630278e+04
3.316724e+05 -2.967750e+05 0.000000e+00
3.666108e+05 -2.775848e+05 0.000000e+00
3.309559e+05 -3.255688e+05 -2.698212e+04
3.397681e+05 -3.369212e+05 0.000000e+00
3.744093e+05 -2.934608e+05 -2.492539e+04
3.303054e+05 -2.869393e+05 -5.000000e+04
3.606270e+05 -3.135064e+05 -5.000000e+04
-3.238506e+05 1.781151e+05 -2.284516e+04
-3.335738e+05 1.866432e+05 0.000000e+00
-3.000000e+05 1.673499e+05 0.000000e+00
-3.000000e+05 2.005124e+05 0.000000e+00
-3.242363e+05 2.019112e+05 -2.479758e+04
-3.335722e+05 1.528704e+05 0.000000e+00
-3.219833e+05 1.550144e+05 -2.418889e+04
-3.331119e+05 1.814444e+05 -5.000000e+04
-3.500623e+05 1.947691e+05 -2.492389e+04
3.000000e+05 -1.480457e+05 -2.518612e+04
3.070808e+05 3.546107e+05 -1.714572e+04
2.838715e+05 3.432764e+05 -2.626473e+04
2.962288e+05 3.323792e+05 0.000000e+00
2.772894e+05 3.669850e+05 0.000000e+00
3.214547e+05 3.369143e+05 -2.636251e+04
3.136723e+05 3.607135e+05 -5.000000e+04
2.935138e+05 3.747013e+05 -2.499119e+04
3.357389e+05 3.423035e+05 0.000000e+00
3.310854e+05 3.708053e+05 -2.520548e+04
-3.303425e+05 2.864208e+05 -5.000000e+04
-3.469504e+05 2.817468e+05 -2.677742e+04
-3.300427e+05 3.281790e+05 -2.631692e+04
-3.606526e+05 3.133330e+05 -5.000000e+04
-3.538099e+05 3.084519e+05 -1.787405e+04
-3.749470e+05 2.933940e+05 -2.493585e+04
-3.716865e+05 3.330494e+05 -2.604840e+04
-3.422611e+05 3.357632e+05 0.000000e+00
-3.323575e+05 2.962961e+05 0.000000e+00
-3.669772e+05 2.773495e+05 0.000000e+00
-3.208683e+05 1.285984e+05 -2.543766e+04
-3.000000e+05 1.341874e+05 0.000000e+00
-3.000000e+05 1.457374e+05 -2.479770e+04
-3.331557e+05 1.463574e+05 -5.000000e+04
-3.335717e+05 1.191216e+05 0.000000e+00
-3.000000e+05 1.116890e+05 -2.479816e+04
3.750985e+05 1.731082e+04 -2.495385e+04
3.668370e+05 3.487991e+04 0.000000e+00
3.766226e+05 5.120408e+04 -2.491509e+04
3.486553e+05 3.094323e+04 -2.470062e+04
3.664079e+05 2.208090e+03 -5.000000e+04
3.755591e+05 -1.521008e+04 -2.489784e+04
3.365423e+05 9.969610e+02 -2.491966e+04
3.668382e+05 4.985393e+02 0.000000e+00
4.000000e+05 8.858707e-04 -2.478866e+04
4.000000e+05 1.739130e+04 0.000000e+00
3.664904e+05 3.662308e+04 -5.000000e+04
4.000000e+05 1.739130e+04 -5.000000e+04
4.000000e+05 3.478261e+04 -2.478841e+04
3.241835e+05 -1.338846e+05 -2.511108e+04
3.331162e+05 -1.156285e+05 -5.000000e+04
3.331063e+05 -1.499070e+05 -5.000000e+04
3.000000e+05 -1.298234e+05 -5.000000e+04
3.000000e+05 -1.142814e+05 -2.518156e+04
3.501925e+05 -1.229656e+05 -2.536930e+04
3.335703e+05 -1.518628e+05 0.000000e+00
3.335746e+05 -1.178848e+05 0.000000e+00
3.000000e+05 -1.324332e+05 0.000000e+00
-1.185180e+05 -3.335740e+05 0.000000e+00
-1.333333e+05 -3.000000e+05 0.000000e+00
-1.000000e+05 -3.000000e+05 0.000000e+00
-1.166667e+05 -3.000000e+05 -2.516967e+04
3.767701e+05 8.545747e+04 -2.498937e+04
4.000000e+05 8.695652e+04 -5.000000e+04
3.664910e+05 7.093362e+04 -5.000000e+04
3.664147e+05 1.050627e+05 -5.000000e+04
4.000000e+05 8.695652e+04 0.000000e+00
3.668311e+05 6.925743e+04 0.000000e+00
4.000000e+05 6.956522e+04 -2.478801e+04
3.532003e+05 6.143720e+04 -2.460611e+04
3.529343e+05 9.380645e+04 -2.566405e+04
-6.874474e+04 -3.242435e+05 -2.504036e+04
[...]
POINT_DATA 9490
VECTORS displacement double
5.295950e-05 -6.946018e-06 5.642801e-06
5.281135e-05 0.000000e+00 6.815301e-06
5.343445e-05 -1.037467e-05 4.973902e-06
5.390470e-05 0.000000e+00 6.176456e-06
5.183831e-05 -9.086313e-06 5.730772e-06
5.103642e-05 -3.561917e-06 6.001054e-06
5.199162e-05 0.000000e+00 7.266259e-06
5.420993e-05 0.000000e+00 5.834028e-06
5.131767e-05 -5.631881e-06 4.949402e-06
5.607988e-05 0.000000e+00 5.394402e-06
5.496035e-05 -1.154336e-05 4.233851e-06
0.000000e+00 3.194404e-05 -1.263053e-05
-7.822065e-06 4.195945e-05 -1.112696e-05
-6.060565e-06 4.015366e-05 -1.461795e-05
-6.367803e-06 3.649478e-05 -1.323328e-05
0.000000e+00 4.212859e-06 -3.140678e-07
2.661078e-06 7.844772e-06 -5.059474e-07
2.426268e-06 3.092642e-06 -2.358965e-07
3.126706e-06 5.819294e-06 -3.422017e-07
0.000000e+00 2.945842e-05 -1.371139e-05
-2.041052e-06 3.007945e-05 -1.386163e-05
-1.856515e-05 5.690299e-05 -1.566109e-05
-7.639398e-06 3.253387e-05 -1.354762e-05
-8.891716e-06 4.639450e-05 -1.685582e-05
-2.931693e-05 -1.548625e-05 3.050606e-06
-3.236172e-05 -2.154195e-05 -2.256202e-06
-2.541807e-05 -1.200562e-05 2.791982e-06
-3.207499e-05 -2.472016e-05 -5.148011e-06
-3.006548e-05 -1.985869e-05 -4.942026e-07
-2.122437e-05 -5.724544e-06 5.560301e-06
-2.997301e-05 -1.412775e-05 4.963609e-06
-3.035800e-05 -1.020830e-05 5.758618e-06
-3.431018e-05 -2.655072e-05 -4.782810e-07
-2.934531e-05 -1.229807e-05 4.976063e-06
-2.289337e-05 -5.295916e-06 8.057928e-06
-3.165341e-06 6.286411e-05 -1.736004e-05
2.373958e-05 7.756177e-05 -6.363030e-07
7.659792e-06 6.113624e-05 -1.161537e-05
-2.434490e-05 1.054726e-04 -2.959534e-05
-9.891708e-06 1.512790e-05 -3.347957e-06
-4.704458e-06 1.526918e-05 -2.823093e-06
-7.273294e-06 1.381224e-05 -3.455588e-06
-6.821507e-06 1.586957e-05 -3.197313e-06
-1.323422e-05 1.618317e-05 -3.756174e-06
-6.812402e-06 1.598129e-05 -2.842073e-06
-1.090016e-05 1.626589e-05 -3.208352e-06
-6.948549e-06 1.519928e-05 -2.825052e-06
-8.274677e-06 1.641728e-05 -2.573681e-06
-1.363834e-05 1.543935e-05 -3.278963e-06
-1.763550e-05 -2.337765e-05 -1.394372e-06
-9.525569e-06 -4.227378e-05 -5.384181e-06
-8.728331e-06 -2.665732e-05 -2.196963e-06
-1.696887e-05 0.000000e+00 1.901265e-07
-2.101600e-05 -5.457097e-05 -8.848031e-06
-9.010411e-06 0.000000e+00 -2.325293e-07
-8.181525e-06 -3.462370e-05 -2.998195e-06
-1.493416e-05 0.000000e+00 2.411789e-06
3.273857e-05 3.918246e-06 2.923437e-06
3.093764e-05 1.966997e-06 1.451038e-06
2.493210e-05 7.490077e-06 1.601605e-06
2.868191e-05 4.872231e-06 1.417620e-06
4.022412e-05 -1.103532e-07 6.865429e-06
3.510878e-05 -6.867104e-07 5.840870e-06
3.654041e-05 -1.219330e-06 6.380733e-06
3.703816e-05 -1.006544e-06 6.232221e-06
4.601096e-05 0.000000e+00 8.559286e-06
4.528923e-05 9.321199e-07 8.127533e-06
4.221932e-05 0.000000e+00 7.256028e-06
4.277538e-05 1.801797e-07 7.781654e-06
3.992082e-05 0.000000e+00 7.081850e-06
4.466448e-05 0.000000e+00 7.465953e-06
4.154913e-05 5.106602e-07 6.763963e-06
4.276024e-05 1.274690e-06 7.531282e-06
3.719937e-05 1.605733e-05 1.870082e-05
4.349261e-05 1.406595e-05 1.811750e-05
4.273441e-05 2.528804e-05 1.643806e-05
3.816290e-05 0.000000e+00 1.753764e-05
4.252805e-05 0.000000e+00 1.833499e-05
3.657763e-05 3.762093e-05 1.761255e-05
3.858449e-05 0.000000e+00 2.022084e-05
4.307282e-05 2.288638e-05 1.916828e-05
4.742872e-05 -1.595983e-06 5.789807e-06
4.960200e-05 0.000000e+00 5.624801e-06
5.082652e-05 0.000000e+00 6.273817e-06
4.839703e-05 0.000000e+00 6.891517e-06
4.528298e-05 -3.199958e-06 4.636491e-06
4.934999e-05 -4.053710e-06 6.064098e-06
2.257446e-06 -2.794457e-05 -2.815599e-06
-6.244755e-06 -6.454090e-05 -1.164024e-05
1.701267e-05 -2.901837e-05 -2.732593e-06
1.627014e-05 0.000000e+00 -5.488041e-07
7.969381e-06 -4.411494e-05 -5.734044e-06
1.488188e-05 0.000000e+00 1.331947e-06
7.293150e-06 0.000000e+00 -4.164981e-07
7.380020e-06 -3.604768e-05 -3.097044e-06
-5.115652e-07 0.000000e+00 1.388281e-06
1.193675e-05 -6.363838e-05 -1.087445e-05
-8.253682e-06 4.776384e-05 -6.704172e-06
-1.385978e-05 4.479313e-05 -1.155342e-05
-1.918967e-05 5.974521e-05 -8.935105e-06
0.000000e+00 4.364091e-05 -5.724463e-06
0.000000e+00 4.109967e-05 -8.933775e-06
-1.012199e-05 4.553468e-05 -1.038463e-05
0.000000e+00 4.159177e-05 -5.530763e-06
-3.987502e-06 1.463031e-05 -3.389895e-06
0.000000e+00 1.508604e-05 -2.997512e-06
0.000000e+00 1.416330e-05 -3.146158e-06
0.000000e+00 1.363834e-05 -3.635404e-06
2.661262e-07 -1.658051e-05 -1.952360e-07
0.000000e+00 -1.729856e-05 -8.233894e-07
-6.698335e-07 -1.659893e-05 -9.117916e-07
0.000000e+00 -1.678380e-05 -3.829671e-07
2.111717e-08 -1.722268e-05 -4.336079e-07
1.016563e-06 -1.584389e-05 5.482218e-07
0.000000e+00 -1.609612e-05 1.968118e-08
1.591046e-06 -1.557439e-05 4.042317e-07
-8.609670e-07 -1.656732e-05 -6.539894e-07
-7.658788e-08 -1.626067e-05 -3.657736e-07
0.000000e+00 -1.631959e-05 -8.242992e-07
-5.024508e-06 5.997144e-06 -4.206515e-06
-5.615358e-06 2.120059e-06 -4.296045e-06
-7.815061e-06 4.516985e-06 -3.984865e-06
-1.180329e-05 3.574072e-06 -4.429921e-06
0.000000e+00 2.483299e-06 -3.961799e-06
-4.686722e-06 8.891398e-06 -4.044206e-06
0.000000e+00 7.027350e-06 -4.421683e-06
-6.937630e-06 9.067725e-06 -4.376745e-06
0.000000e+00 2.475001e-06 -4.551448e-06
0.000000e+00 4.737590e-06 -4.221414e-06
-7.735499e-06 4.779331e-06 -4.589662e-06
0.000000e+00 8.925322e-06 -4.035472e-06
-1.515466e-05 -1.432613e-04 -4.518458e-05
-2.321066e-05 -1.346201e-04 -4.414017e-05
-2.386307e-05 -9.397572e-05 -2.513216e-05
-1.029968e-05 -1.044762e-04 -2.821319e-05
-1.220935e-05 -1.252666e-04 -4.303307e-05
-3.208463e-06 1.605977e-05 -2.437244e-06
-7.951466e-06 1.712063e-05 -2.922312e-06
-6.416724e-06 1.663790e-05 -2.520083e-06
-2.028521e-05 -8.347323e-05 -1.859339e-05
-1.681842e-05 -6.913448e-05 -1.591321e-05
4.844741e-05 1.508718e-05 1.722787e-05
4.983605e-05 0.000000e+00 1.717143e-05
4.638951e-05 0.000000e+00 1.655518e-05
5.229281e-05 0.000000e+00 1.529123e-05
5.256005e-05 1.329606e-05 1.616356e-05
4.972946e-05 2.147829e-05 1.547812e-05
4.692053e-05 0.000000e+00 1.914969e-05
5.307881e-05 0.000000e+00 1.783169e-05
5.022103e-05 1.940735e-05 1.791349e-05
5.053594e-05 2.895720e-05 1.583258e-05
1.291116e-05 0.000000e+00 2.036151e-05
1.871575e-05 2.020140e-05 1.974429e-05
1.327033e-05 2.639983e-05 2.116537e-05
1.011291e-05 2.043053e-05 1.993966e-05
8.635155e-06 0.000000e+00 2.209207e-05
4.144736e-06 2.487425e-05 2.140404e-05
2.874394e-06 1.585807e-05 2.040325e-05
1.510111e-05 4.239264e-05 1.843387e-05
8.061172e-06 0.000000e+00 1.910083e-05
3.540206e-06 2.767935e-05 1.841165e-05
1.271202e-05 2.935758e-05 1.809815e-05
1.774053e-05 0.000000e+00 1.877497e-05
3.225783e-06 1.061434e-05 -7.541681e-07
1.790150e-06 1.291910e-05 -1.170911e-06
4.079621e-06 1.205630e-05 -8.320949e-07
1.077865e-06 1.317341e-05 -1.353018e-06
5.765650e-06 8.865090e-06 -3.735405e-07
5.634140e-06 7.838935e-06 -3.422686e-07
1.280580e-06 1.155966e-05 -1.021880e-06
3.013383e-06 1.226171e-05 -8.628164e-07
2.744435e-06 9.705001e-06 -6.498871e-07
-2.828873e-05 7.950282e-05 -9.452614e-06
-2.088668e-05 6.634163e-05 -4.308825e-06
-3.107352e-05 9.913491e-05 -1.788157e-05
-2.706235e-05 8.862170e-05 -6.124255e-06
-2.518574e-05 7.512522e-05 -2.718254e-06
-2.177177e-05 6.905154e-05 -1.303035e-05
-3.183693e-05 8.350303e-05 -1.664612e-05
-2.777134e-05 7.277581e-05 -7.247088e-06
-1.802691e-05 6.102630e-05 -1.327304e-06
-1.583228e-05 1.468213e-05 -3.868980e-06
1.671566e-05 -4.266993e-06 3.493376e-06
2.045482e-05 -4.834531e-06 3.718596e-06
1.814954e-05 -6.322310e-06 3.636263e-06
2.301543e-05 -2.867387e-06 4.333218e-06
1.347999e-05 -6.053173e-06 3.042483e-06
1.543496e-05 -3.642785e-06 3.091186e-06
1.966161e-05 -2.266674e-06 3.751494e-06
1.136680e-05 -5.925722e-06 3.179906e-06
1.262048e-05 -2.911098e-06 3.196534e-06
-1.363705e-05 5.052664e-05 1.303379e-05
-1.086773e-05 4.554268e-05 1.411791e-05
-8.992051e-06 3.234247e-05 1.846613e-05
-6.642316e-06 3.475602e-05 1.618743e-05
-7.346517e-06 3.534674e-05 1.735867e-05
-4.738362e-06 3.773389e-05 1.583114e-05
-4.033704e-06 2.543793e-05 1.878090e-05
-7.219263e-06 2.605653e-05 2.045430e-05
-1.058995e-05 4.150605e-05 1.698225e-05
-6.855575e-06 4.004799e-05 1.527205e-05
-3.121661e-05 8.463586e-05 -2.310907e-05
-3.257071e-05 1.097520e-04 -2.941814e-05
-4.151347e-05 1.103354e-04 -2.734036e-05
-2.961119e-05 6.996098e-05 -1.502276e-05
-1.837521e-05 6.849222e-05 -1.925313e-05
-4.031269e-05 1.136111e-04 -3.501834e-05
-5.316288e-06 -6.678103e-06 -3.822088e-06
-6.653478e-06 -9.126349e-06 -3.820906e-06
-4.268421e-06 -1.054742e-05 -3.280540e-06
-1.049524e-05 -8.282395e-06 -3.736194e-06
-7.662201e-06 -4.573038e-06 -3.739801e-06
-5.745584e-06 -2.438905e-06 -4.163294e-06
-1.450642e-05 -4.412844e-06 -4.209550e-06
-7.609805e-06 -4.744045e-06 -4.317410e-06
0.000000e+00 -4.502762e-06 -3.989412e-06
0.000000e+00 -7.016698e-06 -4.041076e-06
-6.685342e-06 -8.741037e-06 -3.301086e-06
0.000000e+00 -6.539188e-06 -3.518914e-06
0.000000e+00 -8.758398e-06 -3.535065e-06
-1.336485e-05 1.282164e-05 -3.958017e-06
-1.326662e-05 1.076760e-05 -3.817091e-06
-1.035058e-05 1.361166e-05 -3.413910e-06
-1.856199e-05 1.312258e-05 -3.866706e-06
-2.031299e-05 1.163305e-05 -4.379652e-06
-9.420434e-06 1.119302e-05 -3.946826e-06
-1.016341e-05 1.422648e-05 -3.872404e-06
-1.306657e-05 1.129518e-05 -4.410336e-06
-1.829505e-05 1.375601e-05 -4.423277e-06
1.447581e-05 -7.486620e-05 -1.591532e-05
4.967366e-06 -1.289919e-04 -4.329644e-05
2.206359e-05 -1.198125e-04 -3.827793e-05
1.716197e-05 -1.420792e-04 -4.390345e-05
-3.157755e-06 -1.365881e-05 -2.569325e-06
0.000000e+00 -1.346451e-05 -2.352846e-06
-5.270044e-06 -1.215348e-05 -2.702177e-06
-3.649437e-06 -1.460344e-05 -1.972232e-06
0.000000e+00 -1.428850e-05 -2.688990e-06
-5.337053e-06 -1.274930e-05 -3.115637e-06
0.000000e+00 -1.232932e-05 -2.892604e-06
-8.064583e-06 -1.151087e-05 -3.141878e-06
-5.857982e-06 -1.422279e-05 -2.396637e-06
3.968954e-05 -8.150333e-05 -1.773026e-05
4.583986e-05 -1.122480e-04 -3.097925e-05
3.568585e-05 -7.977122e-05 -1.550277e-05
3.491372e-05 -1.242976e-04 -3.665988e-05
4.809487e-05 -6.408603e-05 -1.048553e-05
4.876955e-05 -6.156036e-05 -1.111771e-05
4.157359e-05 -4.848594e-05 -5.426575e-06
4.637918e-05 -9.730407e-05 -2.648427e-05
3.473047e-05 -9.958669e-05 -2.963438e-05
2.937461e-05 -6.699251e-05 -1.274143e-05
4.048469e-05 -5.405175e-05 -8.225719e-06
5.529221e-05 -1.954336e-05 2.449148e-06
4.986094e-05 -9.835849e-06 4.031194e-06
5.085695e-05 -1.549760e-05 4.546490e-06
1.063259e-05 6.492673e-05 1.558922e-05
1.494135e-05 8.888677e-05 1.112858e-05
1.715055e-05 5.393987e-05 1.840832e-05
9.393943e-06 8.284768e-05 1.294803e-05
6.993741e-06 5.220710e-05 1.883171e-05
1.673255e-05 5.994233e-05 1.522873e-05
8.615598e-06 9.209844e-05 1.004112e-05
1.294628e-06 6.097126e-05 1.612274e-05
5.590400e-06 4.032886e-05 1.881005e-05
6.006921e-06 5.802382e-05 1.561143e-05
2.160307e-05 6.539097e-05 1.522051e-05
2.100250e-05 9.214927e-05 9.796285e-06
2.798438e-05 5.851186e-05 1.491493e-05
2.673803e-05 8.651138e-05 1.112353e-05
2.568453e-05 4.188825e-05 1.804865e-05
2.794649e-05 5.276414e-05 1.799086e-05
2.075192e-05 8.314401e-05 1.265737e-05
7.082715e-06 2.169162e-05 -1.052104e-05
4.340762e-06 2.014821e-05 -1.145819e-05
2.058281e-05 1.175760e-05 -4.461764e-06
0.000000e+00 1.239134e-05 -9.996652e-06
8.018493e-06 3.470275e-05 -1.230168e-05
0.000000e+00 2.278476e-05 -1.275543e-05
2.233357e-06 3.339293e-05 -1.422549e-05
0.000000e+00 2.359236e-05 -1.232760e-05
1.488979e-05 2.697231e-05 -8.543184e-06
1.603640e-06 -1.615168e-05 2.161642e-07
1.634332e-06 -1.648822e-05 5.018853e-07
0.000000e+00 -1.697091e-05 4.870281e-08
3.737667e-06 -1.484017e-05 1.017536e-06
0.000000e+00 -1.573830e-05 8.847330e-07
0.000000e+00 -1.585949e-05 4.583808e-07
0.000000e+00 -1.490968e-05 7.936404e-07
-7.053341e-06 8.627831e-06 -3.817586e-06
-1.093678e-05 7.741651e-06 -4.283241e-06
-1.174951e-05 -7.360654e-07 -4.362854e-06
-8.022885e-06 -4.443805e-08 -3.971618e-06
0.000000e+00 1.439442e-07 -4.232067e-06
-3.189376e-05 -2.347321e-05 -2.687953e-05
-3.211751e-05 -1.632472e-05 -2.027230e-05
-4.870035e-05 -5.017347e-05 -4.296617e-05
-4.324848e-05 -5.206609e-05 -3.541686e-05
-7.945278e-06 3.480497e-08 -4.574443e-06
5.428614e-05 2.640674e-05 1.238211e-05
5.482525e-05 2.636839e-05 1.450091e-05
5.289398e-05 4.142906e-05 1.140499e-05
5.302251e-05 3.327915e-05 1.197393e-05
5.333302e-05 3.636182e-05 1.017927e-05
5.433796e-05 2.068638e-05 1.124690e-05
5.218706e-05 2.909586e-05 1.066764e-05
5.497643e-05 1.882325e-05 1.306497e-05
5.277200e-05 1.783368e-05 1.108400e-05
5.468083e-05 1.351157e-05 1.224648e-05
5.521189e-05 1.883712e-05 1.367017e-05
4.405094e-05 -2.148060e-05 8.803756e-07
4.045352e-05 -3.546258e-05 -2.374945e-06
4.563648e-05 0.000000e+00 2.078797e-06
3.778066e-05 0.000000e+00 1.874179e-06
3.631742e-05 -2.935527e-05 -4.325389e-08
4.161942e-05 0.000000e+00 4.055498e-06
4.583313e-05 -2.268423e-05 2.425034e-06
5.060292e-05 -2.721432e-05 3.202948e-07
5.118706e-05 -1.630500e-05 3.163902e-06
4.925732e-05 -3.682340e-05 -1.883863e-06
4.771766e-05 0.000000e+00 3.774613e-06
5.286355e-05 1.206592e-05 1.144615e-05
5.143054e-05 2.229389e-05 1.095105e-05
5.132259e-05 2.460187e-05 9.372558e-06
5.195955e-05 1.339662e-05 9.897909e-06
4.938781e-05 1.856070e-05 9.647188e-06
4.944483e-05 1.065644e-05 9.660519e-06
5.211767e-05 8.520424e-06 1.063037e-05
4.703460e-05 2.605977e-06 8.138263e-06
3.870706e-05 0.000000e+00 6.148927e-06
-1.069661e-05 -8.054098e-07 -3.029608e-06
-2.209002e-05 -9.223763e-06 -9.457269e-06
-1.414817e-05 1.971432e-06 -1.230492e-05
-1.290895e-05 3.270222e-06 -7.562669e-06
4.833946e-05 2.119693e-06 9.372551e-06
2.296328e-05 -3.421229e-05 -2.089824e-06
2.561445e-05 -4.142150e-05 -4.580436e-06
3.218822e-05 -2.652248e-05 -1.357116e-06
2.857211e-05 -5.833086e-05 -8.772636e-06
2.363218e-05 0.000000e+00 4.364097e-07
-1.320659e-06 0.000000e+00 -5.522591e-07
-2.049804e-05 -2.952363e-05 -1.106165e-06
-2.385487e-05 -3.658621e-05 -3.455604e-06
2.390030e-06 9.949457e-06 -7.855362e-07
0.000000e+00 1.044530e-05 -8.782864e-07
0.000000e+00 1.165129e-05 -1.081281e-06
2.162378e-05 3.134740e-05 -8.333992e-06
5.125063e-05 2.812302e-05 3.570446e-06
0.000000e+00 2.962038e-05 -8.634647e-06
2.834459e-05 2.203148e-05 -4.274222e-06
1.933365e-05 2.122294e-05 -1.276546e-05
0.000000e+00 1.313190e-05 2.004212e-05
-2.525048e-06 8.700006e-06 2.163076e-05
-3.467883e-06 1.879939e-05 2.084194e-05
-3.328951e-06 1.229526e-05 1.997846e-05
4.500744e-05 3.359180e-05 9.840028e-07
1.488522e-05 3.045459e-05 -1.626518e-05
3.961426e-05 2.466147e-05 -5.013831e-06
3.077250e-05 3.931616e-05 -9.090856e-06
3.915739e-05 -1.729893e-06 2.946882e-06
4.300691e-05 -4.050263e-06 3.793711e-06
3.293891e-05 -5.976461e-07 1.401203e-06
3.729378e-05 -7.266951e-06 2.526484e-07
4.526315e-05 -6.034983e-06 2.890443e-06
3.545534e-05 -2.261648e-06 9.079571e-07
3.854224e-05 6.191972e-07 3.205878e-06
3.755485e-05 1.977149e-06 3.902363e-06
3.850031e-05 1.537268e-06 4.203886e-06
3.262559e-05 6.183288e-05 1.501077e-05
3.833574e-05 5.393312e-05 1.456601e-05
4.205940e-05 5.558256e-05 1.466174e-05
3.745267e-05 7.923444e-05 1.134595e-05
0.000000e+00 1.047592e-05 -9.007165e-06
0.000000e+00 4.365903e-06 -5.629908e-06
3.296404e-05 8.682680e-05 1.017357e-05
1.674685e-05 1.756068e-05 -4.608073e-06
3.120750e-05 2.198731e-05 -6.933653e-07
3.746317e-05 1.368204e-05 1.635128e-06
0.000000e+00 1.694302e-05 -9.123920e-06
4.614360e-05 1.997957e-05 5.451765e-06
0.000000e+00 1.701571e-05 -5.381239e-06
2.613219e-05 2.357826e-05 -1.501346e-06
3.355351e-05 2.813442e-05 1.724734e-05
3.331420e-05 0.000000e+00 1.940453e-05
-2.352786e-05 -4.427281e-06 -4.752940e-06
-2.185156e-05 -6.803966e-06 -4.140878e-06
-2.425972e-05 -2.080954e-06 -4.595050e-06
4.486420e-05 3.434344e-05 1.674150e-05
2.664984e-05 7.153972e-06 2.417480e-06
3.179866e-05 4.637480e-06 2.834118e-06
2.250837e-05 9.051178e-06 1.342374e-06
2.542821e-05 6.920168e-06 2.189584e-06
3.160837e-05 5.697658e-06 3.363575e-06
2.205976e-05 1.016388e-05 1.625296e-06
2.112815e-05 8.787146e-06 1.717619e-06
2.579695e-05 5.661310e-06 2.532440e-06
2.570779e-05 7.722110e-06 2.542227e-06
-2.670655e-05 -2.203712e-05 2.133718e-07
-3.060726e-05 -4.432066e-05 -5.921196e-06
-3.185588e-05 -2.022278e-05 2.452146e-06
-2.811147e-05 -2.200709e-05 1.955495e-06
-2.928107e-05 0.000000e+00 4.089454e-06
-2.458120e-05 0.000000e+00 4.197064e-06
-2.391894e-05 -1.408992e-05 -2.023893e-05
-3.305369e-05 -2.665472e-05 -1.631050e-05
3.344618e-05 0.000000e+00 5.844401e-06
3.095975e-05 -2.607025e-06 5.137724e-06
3.549915e-05 -9.323323e-07 5.568026e-06
3.237009e-05 0.000000e+00 5.037687e-06
-1.319375e-05 -1.098606e-05 -3.415393e-06
-1.210919e-05 -1.099706e-05 -3.630554e-06
-1.622116e-05 -1.263720e-05 -3.408228e-06
-2.054635e-05 -8.948991e-06 -4.178205e-06
-1.190530e-05 -1.063206e-05 -3.097201e-06
-8.681192e-06 -1.404578e-05 -2.469283e-06
-9.167629e-06 -1.411429e-05 -2.849826e-06
-8.825608e-06 -1.356253e-05 -2.372655e-06
-1.791417e-05 -1.102777e-05 -3.420369e-06
-3.988762e-06 1.140295e-05 -3.750963e-06
0.000000e+00 1.045292e-05 -3.568189e-06
0.000000e+00 1.085719e-05 -4.128522e-06
0.000000e+00 6.796085e-06 -3.881788e-06
-1.586423e-05 -2.242779e-06 -4.714274e-06
-2.484898e-05 5.962542e-07 -5.073143e-06
0.000000e+00 -2.091931e-06 -3.831473e-06
0.000000e+00 -2.356075e-06 -4.428096e-06
-1.799815e-05 6.114017e-05 4.049390e-06
-2.271326e-05 -1.039180e-05 -1.492610e-06
-2.498136e-05 -1.208661e-05 -1.942727e-06
-1.404327e-05 1.129490e-07 1.725705e-06
-2.453412e-05 -1.269141e-05 -9.398503e-06
-2.989947e-05 -1.758704e-05 -7.657976e-06
-3.336453e-05 -6.850330e-05 -1.441924e-05
-3.464095e-05 -7.516593e-05 -1.943522e-05
-3.394789e-05 -1.242741e-04 -3.968869e-05
-3.470023e-05 -8.218417e-05 -2.901988e-05
-3.221928e-05 -3.973013e-05 -6.459619e-06
-2.748915e-05 -5.578741e-05 -1.201802e-05
-3.917293e-05 -5.101193e-05 -9.228093e-06
-3.684763e-05 -1.106866e-04 -3.712635e-05
-2.667079e-05 -1.078860e-04 -3.818202e-05
-4.504809e-05 -9.543758e-05 -3.084870e-05
2.739080e-05 6.253114e-06 1.864343e-06
3.200669e-05 4.223784e-06 3.439813e-06
-3.438485e-05 -5.292222e-05 -4.110512e-05
-2.117000e-05 -1.616616e-05 -2.952499e-05
-4.486564e-05 -5.836700e-05 -4.709912e-05
-2.264038e-05 -2.160684e-05 -3.762945e-05
-2.964619e-05 -9.580894e-06 -2.963442e-05
2.578215e-07 1.380088e-05 -1.568535e-06
-6.347405e-07 1.506726e-05 -2.009824e-06
3.396486e-07 1.490365e-05 -1.642906e-06
3.389856e-05 -2.296790e-06 5.646718e-06
3.232099e-05 -3.585710e-06 5.604285e-06
3.819093e-05 -1.135467e-06 6.780589e-06
3.471806e-05 -1.092855e-06 5.876443e-06
3.100460e-05 -2.904034e-06 4.821797e-06
3.137477e-05 -2.741214e-06 4.883992e-06
3.702800e-05 -5.360511e-07 5.884959e-06
3.199245e-05 -3.445336e-06 5.557109e-06
2.759392e-05 -4.724683e-06 4.573556e-06
3.005265e-05 -4.001516e-06 4.953881e-06
9.015131e-07 1.272470e-05 -1.217518e-06
0.000000e+00 1.114659e-05 -9.267342e-07
0.000000e+00 1.265969e-05 -1.309768e-06
1.965406e-05 1.048457e-05 1.289218e-06
1.721124e-05 1.207571e-05 1.086901e-06
1.720886e-05 1.111971e-05 9.394980e-07
1.967582e-05 7.953796e-06 1.463112e-06
3.423260e-06 -1.556279e-05 5.280269e-07
4.646953e-06 -1.457899e-05 8.745374e-07
1.508480e-06 -1.573061e-05 6.913735e-08
4.700200e-06 -1.456855e-05 6.573835e-07
1.788232e-06 -1.564743e-05 1.155052e-07
5.940991e-06 -1.467045e-05 9.396150e-07
7.661710e-06 -1.347383e-05 1.558817e-06
4.776978e-06 -1.565236e-05 7.657126e-07
4.689799e-06 -1.551087e-05 9.676520e-07
-9.066313e-06 1.011161e-05 -1.963524e-05
0.000000e+00 1.549896e-05 -1.701004e-05
-1.128803e-05 7.127043e-06 -1.636938e-05
-7.966511e-06 1.123554e-05 -2.320505e-05
0.000000e+00 9.907063e-06 -1.342559e-05
-1.924867e-05 -3.354227e-06 -2.308240e-05
-1.531987e-05 5.751351e-06 -1.623518e-05
0.000000e+00 1.555661e-05 -1.634694e-05
-1.173341e-05 1.603539e-05 -2.264043e-05
-2.142644e-05 6.954927e-05 4.481316e-06
-2.292711e-05 6.912332e-05 1.236840e-06
-1.785485e-05 6.127430e-05 8.358973e-06
-2.776563e-05 8.502559e-05 9.764895e-07
8.007166e-05 1.685900e-05 1.979899e-05
4.562019e-05 6.389614e-06 -1.530887e-06
5.980855e-05 3.236231e-05 1.523275e-06