# vtk DataFile Version 2.0
Simplicial Mesh Example
ASCII
DATASET UNSTRUCTURED_GRID
POINTS 9490 double
4.132646e+04 -3.761110e+05 -2.495947e+04
1.739130e+04 -4.000000e+05 0.000000e+00
1.424943e+04 -3.757412e+05 -2.497841e+04
3.478261e+04 -4.000000e+05 -2.478841e+04
3.431474e+04 -3.668361e+05 0.000000e+00
6.536071e+04 -3.800007e+05 -2.495579e+04
5.217391e+04 -4.000000e+05 0.000000e+00
5.217391e+04 -4.000000e+05 -5.000000e+04
6.848295e+04 -3.663208e+05 -5.000000e+04
1.739130e+04 -4.000000e+05 -5.000000e+04
3.422046e+04 -3.663210e+05 -5.000000e+04
-4.000000e+05 1.043476e+05 -2.478869e+04
-3.778006e+05 1.290431e+05 -2.559237e+04
-3.668348e+05 1.033122e+05 0.000000e+00
-3.750401e+05 1.075547e+05 -3.181274e+04
4.000000e+05 -3.652174e+05 -2.500000e+04
3.692598e+05 -3.333058e+05 -2.499312e+04
3.776504e+05 -3.747415e+05 -2.247043e+04
3.693733e+05 -3.529960e+05 0.000000e+00
-4.000000e+05 8.695652e+04 0.000000e+00
-3.760516e+05 8.212939e+04 -2.543564e+04
-3.482879e+05 1.253124e+05 -2.574623e+04
-3.665651e+05 9.874016e+04 -5.000000e+04
-3.495547e+05 9.060720e+04 -2.563270e+04
-3.071185e+05 -3.486990e+05 -2.261025e+04
-3.153762e+05 -3.243183e+05 -5.000000e+04
-3.287827e+05 -3.355430e+05 -2.504110e+04
-3.095113e+05 -3.153966e+05 -2.507638e+04
-2.962358e+05 -3.323448e+05 0.000000e+00
-3.357456e+05 -3.422369e+05 0.000000e+00
-2.772919e+05 -3.669732e+05 0.000000e+00
-2.934123e+05 -3.742563e+05 -2.511903e+04
-2.806419e+05 -3.463229e+05 -2.661752e+04
-3.140042e+05 -3.607419e+05 -5.000000e+04
-3.320497e+05 -3.703516e+05 -2.524928e+04
-3.224905e+05 6.841821e+04 -2.756000e+04
-3.000000e+05 4.234958e+04 -2.422604e+04
-3.000000e+05 5.362570e+04 -5.000000e+04
-3.000000e+05 7.749820e+04 -2.479801e+04
3.227610e+05 -1.685566e+05 -2.697912e+04
3.499303e+05 -1.919500e+05 -2.498446e+04
3.500600e+05 -1.567367e+05 -2.546429e+04
3.335574e+05 -1.858748e+05 0.000000e+00
3.000000e+05 -1.659466e+05 0.000000e+00
3.208602e+05 -1.947095e+05 -2.232217e+04
3.000000e+05 -1.806737e+05 -2.506219e+04
3.330650e+05 -1.842018e+05 -5.000000e+04
3.000000e+05 -1.978940e+05 -5.000000e+04
3.000000e+05 -1.638587e+05 -5.000000e+04
-1.949782e+05 -3.787045e+05 -2.503133e+04
-1.713812e+05 -3.663209e+05 -5.000000e+04
-1.725141e+05 -3.772415e+05 -2.530126e+04
-1.913043e+05 -4.000000e+05 -5.000000e+04
-1.972219e+05 -3.510331e+05 -2.499278e+04
-1.739069e+05 -4.000000e+05 -2.478809e+04
-1.716829e+05 -3.668361e+05 0.000000e+00
-1.913043e+05 -4.000000e+05 0.000000e+00
1.358880e+05 -3.243044e+05 -2.504137e+04
1.166322e+05 -3.000000e+05 -2.516475e+04
1.497984e+05 -3.000000e+05 -2.516553e+04
1.333333e+05 -3.000000e+05 -5.000000e+04
1.825802e+05 3.751615e+05 -2.720292e+04
2.119132e+05 3.796036e+05 -2.524922e+04
2.061857e+05 3.668333e+05 0.000000e+00
1.947422e+05 3.503722e+05 -2.524152e+04
1.565217e+05 4.000000e+05 0.000000e+00
1.528807e+05 3.759790e+05 -2.499953e+04
1.739069e+05 4.000000e+05 -2.478809e+04
1.716839e+05 3.668365e+05 0.000000e+00
1.913043e+05 4.000000e+05 0.000000e+00
1.565217e+05 4.000000e+05 -5.000000e+04
1.713714e+05 3.663108e+05 -5.000000e+04
1.613560e+05 3.500277e+05 -2.506640e+04
-8.982230e+04 3.792244e+05 -2.494679e+04
-6.535746e+04 3.800015e+05 -2.495585e+04
-6.848071e+04 3.663195e+05 -5.000000e+04
-8.695652e+04 4.000000e+05 -5.000000e+04
-6.956522e+04 4.000000e+05 -2.478801e+04
-9.132937e+04 3.518806e+05 -2.497956e+04
-8.695652e+04 4.000000e+05 0.000000e+00
-6.863978e+04 3.668364e+05 0.000000e+00
8.983161e+04 -3.792230e+05 -2.494676e+04
8.695652e+04 -4.000000e+05 -5.000000e+04
6.956522e+04 -4.000000e+05 -2.478801e+04
8.695652e+04 -4.000000e+05 0.000000e+00
9.134075e+04 -3.518804e+05 -2.497894e+04
6.864043e+04 -3.668360e+05 0.000000e+00
-1.485035e+05 -3.773486e+05 -2.721498e+04
-1.630495e+05 -3.485427e+05 -2.521974e+04
-1.185212e+05 -3.761066e+05 -2.504756e+04
-1.217391e+05 -4.000000e+05 -5.000000e+04
-1.370985e+05 -3.663236e+05 -5.000000e+04
-1.217391e+05 -4.000000e+05 0.000000e+00
-1.391294e+05 -4.000000e+05 -2.478846e+04
-1.373218e+05 -3.668365e+05 0.000000e+00
-1.565217e+05 -4.000000e+05 0.000000e+00
-1.276844e+05 -3.500075e+05 -2.505733e+04
-3.784905e+05 1.568709e+05 -2.476156e+04
-3.664298e+05 1.337587e+05 -5.000000e+04
-3.514457e+05 1.599418e+05 -2.483113e+04
-4.000000e+05 1.565217e+05 -5.000000e+04
-4.000000e+05 1.391294e+05 -2.478846e+04
-3.668349e+05 1.375908e+05 0.000000e+00
-4.000000e+05 1.565217e+05 0.000000e+00
3.668265e+05 -1.714683e+05 0.000000e+00
4.000000e+05 -1.913043e+05 0.000000e+00
4.000000e+05 -1.739069e+05 -2.478809e+04
4.000000e+05 -1.565217e+05 0.000000e+00
3.763528e+05 1.812702e+05 -2.493822e+04
4.000000e+05 1.565217e+05 0.000000e+00
3.764050e+05 1.528124e+05 -2.490916e+04
4.000000e+05 1.739130e+05 -2.478510e+04
3.668383e+05 1.722952e+05 0.000000e+00
3.797466e+05 2.119345e+05 -2.497186e+04
4.000000e+05 1.913043e+05 -5.000000e+04
3.662642e+05 2.068445e+05 -5.000000e+04
3.507120e+05 1.619053e+05 -2.490325e+04
3.662844e+05 1.729597e+05 -5.000000e+04
4.000000e+05 1.565217e+05 -5.000000e+04
3.776488e+05 -7.900637e+04 -2.735718e+04
3.762845e+05 -4.901174e+04 -2.508786e+04
3.663605e+05 -6.676216e+04 -5.000000e+04
3.502306e+05 -5.807827e+04 -2.511783e+04
4.000000e+05 -5.217391e+04 -5.000000e+04
3.773063e+05 -1.038824e+05 -2.578879e+04
4.000000e+05 -8.695652e+04 0.000000e+00
3.668372e+05 -1.026508e+05 0.000000e+00
4.000000e+05 -5.217391e+04 0.000000e+00
4.000000e+05 -6.956519e+04 -2.478879e+04
3.668380e+05 -6.826645e+04 0.000000e+00
4.000000e+05 -1.043476e+05 -2.478869e+04
-1.666667e+05 -3.000000e+05 -5.000000e+04
-1.833333e+05 -3.000000e+05 -2.518468e+04
-1.933582e+05 -3.216521e+05 -2.503520e+04
-1.657267e+05 -3.213415e+05 -2.506307e+04
-1.666667e+05 -3.000000e+05 0.000000e+00
3.334882e+05 -2.202831e+05 0.000000e+00
3.000000e+05 -1.994599e+05 0.000000e+00
3.000000e+05 -2.085861e+05 -2.501244e+04
-1.859359e+05 -3.331067e+05 -5.000000e+04
-1.862587e+05 -3.335758e+05 0.000000e+00
-4.132523e+04 3.761107e+05 -2.495957e+04
-3.478261e+04 4.000000e+05 -2.478841e+04
-5.217391e+04 4.000000e+05 -5.000000e+04
-1.739130e+04 4.000000e+05 -5.000000e+04
-1.424890e+04 3.757408e+05 -2.497844e+04
-3.421938e+04 3.663190e+05 -5.000000e+04
-5.217391e+04 4.000000e+05 0.000000e+00
-1.739130e+04 4.000000e+05 0.000000e+00
-3.431405e+04 3.668365e+05 0.000000e+00
-2.739007e+04 3.505180e+05 -2.498776e+04
-1.739130e+05 4.000000e+05 -2.478510e+04
-1.528672e+05 3.759826e+05 -2.500255e+04
-1.716148e+05 3.668263e+05 0.000000e+00
-1.825315e+05 3.751689e+05 -2.721318e+04
-1.913043e+05 4.000000e+05 0.000000e+00
-2.059314e+05 3.667832e+05 0.000000e+00
-2.118669e+05 3.796033e+05 -2.526514e+04
-1.612599e+05 3.500460e+05 -2.507149e+04
-1.913043e+05 4.000000e+05 -5.000000e+04
-2.056558e+05 3.663226e+05 -5.000000e+04
-1.712892e+05 3.663242e+05 -5.000000e+04
-1.565217e+05 4.000000e+05 -5.000000e+04
3.507710e+05 -3.071241e+05 -1.983709e+04
3.472371e+05 -2.783609e+05 -2.630278e+04
3.316724e+05 -2.967750e+05 0.000000e+00
3.666108e+05 -2.775848e+05 0.000000e+00
3.309559e+05 -3.255688e+05 -2.698212e+04
3.397681e+05 -3.369212e+05 0.000000e+00
3.744093e+05 -2.934608e+05 -2.492539e+04
3.303054e+05 -2.869393e+05 -5.000000e+04
3.606270e+05 -3.135064e+05 -5.000000e+04
-3.238506e+05 1.781151e+05 -2.284516e+04
-3.335738e+05 1.866432e+05 0.000000e+00
-3.000000e+05 1.673499e+05 0.000000e+00
-3.000000e+05 2.005124e+05 0.000000e+00
-3.242363e+05 2.019112e+05 -2.479758e+04
-3.335722e+05 1.528704e+05 0.000000e+00
-3.219833e+05 1.550144e+05 -2.418889e+04
-3.331119e+05 1.814444e+05 -5.000000e+04
-3.500623e+05 1.947691e+05 -2.492389e+04
3.000000e+05 -1.480457e+05 -2.518612e+04
3.070808e+05 3.546107e+05 -1.714572e+04
2.838715e+05 3.432764e+05 -2.626473e+04
2.962288e+05 3.323792e+05 0.000000e+00
2.772894e+05 3.669850e+05 0.000000e+00
3.214547e+05 3.369143e+05 -2.636251e+04
3.136723e+05 3.607135e+05 -5.000000e+04
2.935138e+05 3.747013e+05 -2.499119e+04
3.357389e+05 3.423035e+05 0.000000e+00
3.310854e+05 3.708053e+05 -2.520548e+04
-3.303425e+05 2.864208e+05 -5.000000e+04
-3.469504e+05 2.817468e+05 -2.677742e+04
-3.300427e+05 3.281790e+05 -2.631692e+04
-3.606526e+05 3.133330e+05 -5.000000e+04
-3.538099e+05 3.084519e+05 -1.787405e+04
-3.749470e+05 2.933940e+05 -2.493585e+04
-3.716865e+05 3.330494e+05 -2.604840e+04
-3.422611e+05 3.357632e+05 0.000000e+00
-3.323575e+05 2.962961e+05 0.000000e+00
-3.669772e+05 2.773495e+05 0.000000e+00
-3.208683e+05 1.285984e+05 -2.543766e+04
-3.000000e+05 1.341874e+05 0.000000e+00
-3.000000e+05 1.457374e+05 -2.479770e+04
-3.331557e+05 1.463574e+05 -5.000000e+04
-3.335717e+05 1.191216e+05 0.000000e+00
-3.000000e+05 1.116890e+05 -2.479816e+04
3.750985e+05 1.731082e+04 -2.495385e+04
3.668370e+05 3.487991e+04 0.000000e+00
3.766226e+05 5.120408e+04 -2.491509e+04
3.486553e+05 3.094323e+04 -2.470062e+04
3.664079e+05 2.208090e+03 -5.000000e+04
3.755591e+05 -1.521008e+04 -2.489784e+04
3.365423e+05 9.969610e+02 -2.491966e+04
3.668382e+05 4.985393e+02 0.000000e+00
4.000000e+05 8.858707e-04 -2.478866e+04
4.000000e+05 1.739130e+04 0.000000e+00
3.664904e+05 3.662308e+04 -5.000000e+04
4.000000e+05 1.739130e+04 -5.000000e+04
4.000000e+05 3.478261e+04 -2.478841e+04
3.241835e+05 -1.338846e+05 -2.511108e+04
3.331162e+05 -1.156285e+05 -5.000000e+04
3.331063e+05 -1.499070e+05 -5.000000e+04
3.000000e+05 -1.298234e+05 -5.000000e+04
3.000000e+05 -1.142814e+05 -2.518156e+04
3.501925e+05 -1.229656e+05 -2.536930e+04
3.335703e+05 -1.518628e+05 0.000000e+00
3.335746e+05 -1.178848e+05 0.000000e+00
3.000000e+05 -1.324332e+05 0.000000e+00
-1.185180e+05 -3.335740e+05 0.000000e+00
-1.333333e+05 -3.000000e+05 0.000000e+00
-1.000000e+05 -3.000000e+05 0.000000e+00
-1.166667e+05 -3.000000e+05 -2.516967e+04
3.767701e+05 8.545747e+04 -2.498937e+04
4.000000e+05 8.695652e+04 -5.000000e+04
3.664910e+05 7.093362e+04 -5.000000e+04
3.664147e+05 1.050627e+05 -5.000000e+04
4.000000e+05 8.695652e+04 0.000000e+00
3.668311e+05 6.925743e+04 0.000000e+00
4.000000e+05 6.956522e+04 -2.478801e+04
3.532003e+05 6.143720e+04 -2.460611e+04
3.529343e+05 9.380645e+04 -2.566405e+04
-6.874474e+04 -3.242435e+05 -2.504036e+04
[...]
POINT_DATA 9490
VECTORS displacement double
5.295953e-05 -6.946025e-06 5.642804e-06
5.281138e-05 0.000000e+00 6.815302e-06
5.343448e-05 -1.037469e-05 4.973903e-06
5.390473e-05 0.000000e+00 6.176456e-06
5.183834e-05 -9.086326e-06 5.730770e-06
5.103644e-05 -3.561914e-06 6.001053e-06
5.199165e-05 0.000000e+00 7.266258e-06
5.420996e-05 0.000000e+00 5.834029e-06
5.131769e-05 -5.631897e-06 4.949402e-06
5.607991e-05 0.000000e+00 5.394401e-06
5.496038e-05 -1.154340e-05 4.233848e-06
0.000000e+00 3.194406e-05 -1.263054e-05
-7.822056e-06 4.195947e-05 -1.112696e-05
-6.060552e-06 4.015369e-05 -1.461796e-05
-6.367811e-06 3.649480e-05 -1.323328e-05
0.000000e+00 4.212831e-06 -3.140780e-07
2.661076e-06 7.844764e-06 -5.059556e-07
2.426253e-06 3.092627e-06 -2.359033e-07
3.126696e-06 5.819278e-06 -3.422009e-07
0.000000e+00 2.945844e-05 -1.371140e-05
-2.041023e-06 3.007946e-05 -1.386164e-05
-1.856513e-05 5.690304e-05 -1.566110e-05
-7.639419e-06 3.253390e-05 -1.354763e-05
-8.891721e-06 4.639453e-05 -1.685583e-05
-2.931692e-05 -1.548623e-05 3.050618e-06
-3.236180e-05 -2.154192e-05 -2.256196e-06
-2.541812e-05 -1.200565e-05 2.791992e-06
-3.207498e-05 -2.472019e-05 -5.148016e-06
-3.006548e-05 -1.985869e-05 -4.941982e-07
-2.122434e-05 -5.724558e-06 5.560311e-06
-2.997302e-05 -1.412779e-05 4.963616e-06
-3.035795e-05 -1.020835e-05 5.758629e-06
-3.431020e-05 -2.655074e-05 -4.782753e-07
-2.934532e-05 -1.229810e-05 4.976076e-06
-2.289338e-05 -5.295894e-06 8.057941e-06
-3.165348e-06 6.286416e-05 -1.736005e-05
2.373960e-05 7.756182e-05 -6.363057e-07
7.659758e-06 6.113628e-05 -1.161537e-05
-2.434487e-05 1.054726e-04 -2.959536e-05
-9.891703e-06 1.512790e-05 -3.347961e-06
-4.704470e-06 1.526919e-05 -2.823092e-06
-7.273271e-06 1.381224e-05 -3.455581e-06
-6.821536e-06 1.586957e-05 -3.197314e-06
-1.323424e-05 1.618317e-05 -3.756175e-06
-6.812417e-06 1.598130e-05 -2.842075e-06
-1.090019e-05 1.626592e-05 -3.208354e-06
-6.948562e-06 1.519929e-05 -2.825047e-06
-8.274703e-06 1.641728e-05 -2.573678e-06
-1.363836e-05 1.543938e-05 -3.278956e-06
-1.763550e-05 -2.337761e-05 -1.394379e-06
-9.525575e-06 -4.227378e-05 -5.384191e-06
-8.728335e-06 -2.665732e-05 -2.196965e-06
-1.696886e-05 0.000000e+00 1.901245e-07
-2.101600e-05 -5.457101e-05 -8.848044e-06
-9.010413e-06 0.000000e+00 -2.325331e-07
-8.181529e-06 -3.462372e-05 -2.998201e-06
-1.493417e-05 0.000000e+00 2.411786e-06
3.273857e-05 3.918245e-06 2.923439e-06
3.093765e-05 1.967016e-06 1.451040e-06
2.493213e-05 7.490080e-06 1.601606e-06
2.868193e-05 4.872214e-06 1.417620e-06
4.022415e-05 -1.103697e-07 6.865432e-06
3.510880e-05 -6.867481e-07 5.840878e-06
3.654044e-05 -1.219352e-06 6.380741e-06
3.703818e-05 -1.006515e-06 6.232220e-06
4.601098e-05 0.000000e+00 8.559293e-06
4.528928e-05 9.321110e-07 8.127535e-06
4.221936e-05 0.000000e+00 7.256031e-06
4.277540e-05 1.801510e-07 7.781660e-06
3.992083e-05 0.000000e+00 7.081856e-06
4.466449e-05 0.000000e+00 7.465954e-06
4.154916e-05 5.106400e-07 6.763967e-06
4.276025e-05 1.274715e-06 7.531295e-06
3.719939e-05 1.605732e-05 1.870083e-05
4.349264e-05 1.406595e-05 1.811752e-05
4.273443e-05 2.528801e-05 1.643808e-05
3.816292e-05 0.000000e+00 1.753766e-05
4.252809e-05 0.000000e+00 1.833500e-05
3.657765e-05 3.762096e-05 1.761256e-05
3.858452e-05 0.000000e+00 2.022086e-05
4.307286e-05 2.288643e-05 1.916829e-05
4.742874e-05 -1.595976e-06 5.789808e-06
4.960203e-05 0.000000e+00 5.624798e-06
5.082655e-05 0.000000e+00 6.273818e-06
4.839704e-05 0.000000e+00 6.891518e-06
4.528300e-05 -3.199947e-06 4.636498e-06
4.935002e-05 -4.053711e-06 6.064102e-06
2.257447e-06 -2.794456e-05 -2.815599e-06
-6.244764e-06 -6.454091e-05 -1.164024e-05
1.701267e-05 -2.901838e-05 -2.732587e-06
1.627015e-05 0.000000e+00 -5.488059e-07
7.969388e-06 -4.411493e-05 -5.734039e-06
1.488191e-05 0.000000e+00 1.331950e-06
7.293138e-06 0.000000e+00 -4.164983e-07
7.380002e-06 -3.604769e-05 -3.097042e-06
-5.115796e-07 0.000000e+00 1.388277e-06
1.193677e-05 -6.363842e-05 -1.087446e-05
-8.253678e-06 4.776389e-05 -6.704172e-06
-1.385984e-05 4.479318e-05 -1.155343e-05
-1.918969e-05 5.974525e-05 -8.935112e-06
0.000000e+00 4.364095e-05 -5.724465e-06
0.000000e+00 4.109969e-05 -8.933776e-06
-1.012196e-05 4.553473e-05 -1.038464e-05
0.000000e+00 4.159180e-05 -5.530766e-06
-3.987501e-06 1.463031e-05 -3.389897e-06
0.000000e+00 1.508603e-05 -2.997506e-06
0.000000e+00 1.416330e-05 -3.146154e-06
0.000000e+00 1.363833e-05 -3.635407e-06
2.661082e-07 -1.658051e-05 -1.952411e-07
0.000000e+00 -1.729858e-05 -8.233920e-07
-6.698610e-07 -1.659894e-05 -9.117904e-07
0.000000e+00 -1.678382e-05 -3.829763e-07
2.114631e-08 -1.722267e-05 -4.336165e-07
1.016562e-06 -1.584387e-05 5.482210e-07
0.000000e+00 -1.609612e-05 1.967817e-08
1.591076e-06 -1.557440e-05 4.042303e-07
-8.609715e-07 -1.656731e-05 -6.539951e-07
-7.657973e-08 -1.626069e-05 -3.657809e-07
0.000000e+00 -1.631960e-05 -8.243087e-07
-5.024495e-06 5.997144e-06 -4.206515e-06
-5.615407e-06 2.120057e-06 -4.296052e-06
-7.815072e-06 4.516996e-06 -3.984869e-06
-1.180331e-05 3.574073e-06 -4.429924e-06
0.000000e+00 2.483298e-06 -3.961804e-06
-4.686703e-06 8.891408e-06 -4.044205e-06
0.000000e+00 7.027355e-06 -4.421689e-06
-6.937628e-06 9.067731e-06 -4.376747e-06
0.000000e+00 2.475004e-06 -4.551449e-06
0.000000e+00 4.737600e-06 -4.221420e-06
-7.735465e-06 4.779327e-06 -4.589662e-06
0.000000e+00 8.925319e-06 -4.035473e-06
-1.515467e-05 -1.432613e-04 -4.518460e-05
-2.321067e-05 -1.346201e-04 -4.414020e-05
-2.386309e-05 -9.397578e-05 -2.513217e-05
-1.029970e-05 -1.044763e-04 -2.821321e-05
-1.220934e-05 -1.252667e-04 -4.303310e-05
-3.208436e-06 1.605978e-05 -2.437243e-06
-7.951513e-06 1.712064e-05 -2.922316e-06
-6.416745e-06 1.663791e-05 -2.520084e-06
-2.028522e-05 -8.347330e-05 -1.859341e-05
-1.681843e-05 -6.913450e-05 -1.591321e-05
4.844744e-05 1.508719e-05 1.722788e-05
4.983608e-05 0.000000e+00 1.717144e-05
4.638953e-05 0.000000e+00 1.655519e-05
5.229284e-05 0.000000e+00 1.529123e-05
5.256008e-05 1.329604e-05 1.616356e-05
4.972949e-05 2.147833e-05 1.547812e-05
4.692056e-05 0.000000e+00 1.914970e-05
5.307885e-05 0.000000e+00 1.783169e-05
5.022107e-05 1.940736e-05 1.791350e-05
5.053597e-05 2.895721e-05 1.583259e-05
1.291117e-05 0.000000e+00 2.036152e-05
1.871577e-05 2.020144e-05 1.974429e-05
1.327032e-05 2.639982e-05 2.116538e-05
1.011289e-05 2.043053e-05 1.993967e-05
8.635162e-06 0.000000e+00 2.209208e-05
4.144759e-06 2.487422e-05 2.140406e-05
2.874408e-06 1.585810e-05 2.040326e-05
1.510112e-05 4.239269e-05 1.843388e-05
8.061184e-06 0.000000e+00 1.910083e-05
3.540210e-06 2.767936e-05 1.841166e-05
1.271205e-05 2.935757e-05 1.809816e-05
1.774056e-05 0.000000e+00 1.877497e-05
3.225786e-06 1.061435e-05 -7.541680e-07
1.790179e-06 1.291913e-05 -1.170904e-06
4.079619e-06 1.205631e-05 -8.320941e-07
1.077864e-06 1.317341e-05 -1.353012e-06
5.765651e-06 8.865101e-06 -3.735417e-07
5.634193e-06 7.838921e-06 -3.422757e-07
1.280597e-06 1.155964e-05 -1.021879e-06
3.013397e-06 1.226173e-05 -8.628141e-07
2.744422e-06 9.705011e-06 -6.498956e-07
-2.828876e-05 7.950287e-05 -9.452615e-06
-2.088674e-05 6.634166e-05 -4.308822e-06
-3.107349e-05 9.913498e-05 -1.788156e-05
-2.706235e-05 8.862175e-05 -6.124263e-06
-2.518579e-05 7.512526e-05 -2.718252e-06
-2.177179e-05 6.905160e-05 -1.303035e-05
-3.183697e-05 8.350308e-05 -1.664612e-05
-2.777129e-05 7.277583e-05 -7.247084e-06
-1.802695e-05 6.102633e-05 -1.327301e-06
-1.583226e-05 1.468213e-05 -3.868981e-06
1.671571e-05 -4.266977e-06 3.493383e-06
2.045488e-05 -4.834582e-06 3.718601e-06
1.814951e-05 -6.322282e-06 3.636262e-06
2.301548e-05 -2.867377e-06 4.333219e-06
1.347997e-05 -6.053119e-06 3.042477e-06
1.543495e-05 -3.642756e-06 3.091180e-06
1.966164e-05 -2.266652e-06 3.751495e-06
1.136683e-05 -5.925728e-06 3.179898e-06
1.262048e-05 -2.911142e-06 3.196530e-06
-1.363708e-05 5.052667e-05 1.303379e-05
-1.086771e-05 4.554274e-05 1.411792e-05
-8.992069e-06 3.234251e-05 1.846613e-05
-6.642366e-06 3.475607e-05 1.618743e-05
-7.346546e-06 3.534677e-05 1.735868e-05
-4.738377e-06 3.773390e-05 1.583115e-05
-4.033699e-06 2.543793e-05 1.878091e-05
-7.219210e-06 2.605654e-05 2.045431e-05
-1.058998e-05 4.150608e-05 1.698226e-05
-6.855570e-06 4.004799e-05 1.527207e-05
-3.121663e-05 8.463590e-05 -2.310907e-05
-3.257068e-05 1.097520e-04 -2.941816e-05
-4.151352e-05 1.103354e-04 -2.734037e-05
-2.961117e-05 6.996101e-05 -1.502277e-05
-1.837524e-05 6.849225e-05 -1.925313e-05
-4.031267e-05 1.136112e-04 -3.501836e-05
-5.316258e-06 -6.678111e-06 -3.822088e-06
-6.653466e-06 -9.126350e-06 -3.820910e-06
-4.268457e-06 -1.054743e-05 -3.280546e-06
-1.049523e-05 -8.282398e-06 -3.736193e-06
-7.662173e-06 -4.573043e-06 -3.739804e-06
-5.745556e-06 -2.438906e-06 -4.163300e-06
-1.450638e-05 -4.412848e-06 -4.209549e-06
-7.609814e-06 -4.744047e-06 -4.317417e-06
0.000000e+00 -4.502765e-06 -3.989422e-06
0.000000e+00 -7.016702e-06 -4.041079e-06
-6.685340e-06 -8.741048e-06 -3.301087e-06
0.000000e+00 -6.539195e-06 -3.518918e-06
0.000000e+00 -8.758407e-06 -3.535072e-06
-1.336490e-05 1.282164e-05 -3.958017e-06
-1.326659e-05 1.076760e-05 -3.817087e-06
-1.035059e-05 1.361166e-05 -3.413905e-06
-1.856200e-05 1.312260e-05 -3.866706e-06
-2.031295e-05 1.163306e-05 -4.379655e-06
-9.420454e-06 1.119302e-05 -3.946826e-06
-1.016340e-05 1.422647e-05 -3.872409e-06
-1.306658e-05 1.129519e-05 -4.410339e-06
-1.829501e-05 1.375602e-05 -4.423277e-06
1.447581e-05 -7.486623e-05 -1.591532e-05
4.967378e-06 -1.289919e-04 -4.329647e-05
2.206360e-05 -1.198125e-04 -3.827795e-05
1.716197e-05 -1.420792e-04 -4.390347e-05
-3.157782e-06 -1.365882e-05 -2.569330e-06
0.000000e+00 -1.346451e-05 -2.352862e-06
-5.270081e-06 -1.215349e-05 -2.702175e-06
-3.649446e-06 -1.460344e-05 -1.972231e-06
0.000000e+00 -1.428852e-05 -2.689005e-06
-5.337058e-06 -1.274929e-05 -3.115643e-06
0.000000e+00 -1.232933e-05 -2.892621e-06
-8.064603e-06 -1.151087e-05 -3.141879e-06
-5.857956e-06 -1.422279e-05 -2.396638e-06
3.968956e-05 -8.150337e-05 -1.773027e-05
4.583990e-05 -1.122481e-04 -3.097926e-05
3.568587e-05 -7.977131e-05 -1.550278e-05
3.491374e-05 -1.242976e-04 -3.665989e-05
4.809490e-05 -6.408607e-05 -1.048554e-05
4.876959e-05 -6.156043e-05 -1.111770e-05
4.157362e-05 -4.848600e-05 -5.426574e-06
4.637921e-05 -9.730412e-05 -2.648428e-05
3.473048e-05 -9.958670e-05 -2.963439e-05
2.937463e-05 -6.699255e-05 -1.274143e-05
4.048472e-05 -5.405171e-05 -8.225719e-06
5.529224e-05 -1.954339e-05 2.449147e-06
4.986096e-05 -9.835864e-06 4.031197e-06
5.085698e-05 -1.549763e-05 4.546486e-06
1.063257e-05 6.492676e-05 1.558921e-05
1.494136e-05 8.888683e-05 1.112858e-05
1.715056e-05 5.393990e-05 1.840832e-05
9.393938e-06 8.284773e-05 1.294802e-05
6.993770e-06 5.220715e-05 1.883172e-05
1.673258e-05 5.994239e-05 1.522874e-05
8.615608e-06 9.209849e-05 1.004111e-05
1.294619e-06 6.097128e-05 1.612275e-05
5.590405e-06 4.032886e-05 1.881006e-05
6.006928e-06 5.802387e-05 1.561144e-05
2.160309e-05 6.539101e-05 1.522052e-05
2.100253e-05 9.214930e-05 9.796288e-06
2.798440e-05 5.851190e-05 1.491494e-05
2.673805e-05 8.651140e-05 1.112353e-05
2.568454e-05 4.188824e-05 1.804866e-05
2.794650e-05 5.276416e-05 1.799087e-05
2.075194e-05 8.314411e-05 1.265738e-05
7.082734e-06 2.169164e-05 -1.052105e-05
4.340785e-06 2.014823e-05 -1.145820e-05
2.058282e-05 1.175761e-05 -4.461763e-06
0.000000e+00 1.239136e-05 -9.996656e-06
8.018521e-06 3.470278e-05 -1.230169e-05
0.000000e+00 2.278478e-05 -1.275544e-05
2.233341e-06 3.339295e-05 -1.422550e-05
0.000000e+00 2.359238e-05 -1.232760e-05
1.488979e-05 2.697233e-05 -8.543194e-06
1.603673e-06 -1.615169e-05 2.161599e-07
1.634330e-06 -1.648823e-05 5.018813e-07
0.000000e+00 -1.697090e-05 4.870270e-08
3.737672e-06 -1.484019e-05 1.017540e-06
0.000000e+00 -1.573829e-05 8.847338e-07
0.000000e+00 -1.585949e-05 4.583800e-07
0.000000e+00 -1.490969e-05 7.936329e-07
-7.053328e-06 8.627843e-06 -3.817586e-06
-1.093681e-05 7.741645e-06 -4.283240e-06
-1.174953e-05 -7.360654e-07 -4.362858e-06
-8.022899e-06 -4.444069e-08 -3.971625e-06
0.000000e+00 1.439429e-07 -4.232072e-06
-3.189382e-05 -2.347323e-05 -2.687955e-05
-3.211756e-05 -1.632474e-05 -2.027232e-05
-4.870036e-05 -5.017351e-05 -4.296618e-05
-4.324848e-05 -5.206611e-05 -3.541687e-05
-7.945312e-06 3.480409e-08 -4.574449e-06
5.428616e-05 2.640676e-05 1.238212e-05
5.482528e-05 2.636839e-05 1.450093e-05
5.289401e-05 4.142908e-05 1.140498e-05
5.302254e-05 3.327919e-05 1.197392e-05
5.333305e-05 3.636180e-05 1.017927e-05
5.433799e-05 2.068633e-05 1.124692e-05
5.218708e-05 2.909590e-05 1.066764e-05
5.497646e-05 1.882328e-05 1.306498e-05
5.277202e-05 1.783373e-05 1.108400e-05
5.468086e-05 1.351159e-05 1.224648e-05
5.521191e-05 1.883712e-05 1.367018e-05
4.405096e-05 -2.148058e-05 8.803704e-07
4.045355e-05 -3.546260e-05 -2.374947e-06
4.563651e-05 0.000000e+00 2.078802e-06
3.778067e-05 0.000000e+00 1.874190e-06
3.631745e-05 -2.935527e-05 -4.325100e-08
4.161945e-05 0.000000e+00 4.055499e-06
4.583316e-05 -2.268424e-05 2.425034e-06
5.060295e-05 -2.721433e-05 3.202927e-07
5.118709e-05 -1.630498e-05 3.163900e-06
4.925735e-05 -3.682342e-05 -1.883862e-06
4.771768e-05 0.000000e+00 3.774617e-06
5.286358e-05 1.206598e-05 1.144615e-05
5.143057e-05 2.229386e-05 1.095105e-05
5.132263e-05 2.460189e-05 9.372567e-06
5.195957e-05 1.339662e-05 9.897916e-06
4.938783e-05 1.856072e-05 9.647193e-06
4.944486e-05 1.065640e-05 9.660523e-06
5.211770e-05 8.520469e-06 1.063038e-05
4.703464e-05 2.605985e-06 8.138269e-06
3.870712e-05 0.000000e+00 6.148928e-06
-1.069663e-05 -8.053690e-07 -3.029610e-06
-2.209002e-05 -9.223766e-06 -9.457273e-06
-1.414818e-05 1.971451e-06 -1.230493e-05
-1.290896e-05 3.270239e-06 -7.562674e-06
4.833948e-05 2.119730e-06 9.372554e-06
2.296329e-05 -3.421230e-05 -2.089828e-06
2.561446e-05 -4.142157e-05 -4.580422e-06
3.218823e-05 -2.652248e-05 -1.357112e-06
2.857214e-05 -5.833083e-05 -8.772640e-06
2.363222e-05 0.000000e+00 4.364166e-07
-1.320633e-06 0.000000e+00 -5.522546e-07
-2.049806e-05 -2.952362e-05 -1.106177e-06
-2.385486e-05 -3.658626e-05 -3.455612e-06
2.390047e-06 9.949457e-06 -7.855383e-07
0.000000e+00 1.044526e-05 -8.782854e-07
0.000000e+00 1.165127e-05 -1.081278e-06
2.162379e-05 3.134741e-05 -8.333992e-06
5.125068e-05 2.812305e-05 3.570444e-06
0.000000e+00 2.962040e-05 -8.634652e-06
2.834460e-05 2.203148e-05 -4.274224e-06
1.933362e-05 2.122296e-05 -1.276547e-05
0.000000e+00 1.313193e-05 2.004213e-05
-2.525058e-06 8.700019e-06 2.163077e-05
-3.467900e-06 1.879941e-05 2.084195e-05
-3.328963e-06 1.229527e-05 1.997847e-05
4.500743e-05 3.359182e-05 9.839982e-07
1.488525e-05 3.045463e-05 -1.626518e-05
3.961433e-05 2.466150e-05 -5.013830e-06
3.077251e-05 3.931618e-05 -9.090846e-06
3.915740e-05 -1.729905e-06 2.946885e-06
4.300694e-05 -4.050228e-06 3.793711e-06
3.293892e-05 -5.976052e-07 1.401204e-06
3.729380e-05 -7.266895e-06 2.526487e-07
4.526318e-05 -6.034987e-06 2.890443e-06
3.545536e-05 -2.261615e-06 9.079604e-07
3.854226e-05 6.191918e-07 3.205890e-06
3.755487e-05 1.977163e-06 3.902363e-06
3.850032e-05 1.537266e-06 4.203884e-06
3.262561e-05 6.183292e-05 1.501077e-05
3.833577e-05 5.393313e-05 1.456602e-05
4.205942e-05 5.558264e-05 1.466174e-05
3.745269e-05 7.923448e-05 1.134595e-05
0.000000e+00 1.047594e-05 -9.007170e-06
0.000000e+00 4.365908e-06 -5.629913e-06
3.296408e-05 8.682679e-05 1.017356e-05
1.674686e-05 1.756070e-05 -4.608079e-06
3.120753e-05 2.198733e-05 -6.933677e-07
3.746317e-05 1.368205e-05 1.635132e-06
0.000000e+00 1.694303e-05 -9.123928e-06
4.614361e-05 1.997958e-05 5.451772e-06
0.000000e+00 1.701573e-05 -5.381249e-06
2.613226e-05 2.357827e-05 -1.501344e-06
3.355353e-05 2.813445e-05 1.724735e-05
3.331422e-05 0.000000e+00 1.940456e-05
-2.352791e-05 -4.427287e-06 -4.752943e-06
-2.185156e-05 -6.803971e-06 -4.140878e-06
-2.425974e-05 -2.080957e-06 -4.595053e-06
4.486423e-05 3.434347e-05 1.674151e-05
2.664987e-05 7.154001e-06 2.417482e-06
3.179869e-05 4.637508e-06 2.834124e-06
2.250837e-05 9.051177e-06 1.342379e-06
2.542823e-05 6.920188e-06 2.189586e-06
3.160840e-05 5.697655e-06 3.363578e-06
2.205977e-05 1.016387e-05 1.625297e-06
2.112817e-05 8.787132e-06 1.717624e-06
2.579697e-05 5.661298e-06 2.532441e-06
2.570782e-05 7.722144e-06 2.542228e-06
-2.670654e-05 -2.203715e-05 2.133698e-07
-3.060727e-05 -4.432066e-05 -5.921199e-06
-3.185590e-05 -2.022281e-05 2.452144e-06
-2.811146e-05 -2.200711e-05 1.955495e-06
-2.928107e-05 0.000000e+00 4.089467e-06
-2.458120e-05 0.000000e+00 4.197061e-06
-2.391896e-05 -1.408990e-05 -2.023895e-05
-3.305372e-05 -2.665473e-05 -1.631052e-05
3.344619e-05 0.000000e+00 5.844411e-06
3.095976e-05 -2.607037e-06 5.137726e-06
3.549917e-05 -9.323061e-07 5.568020e-06
3.237009e-05 0.000000e+00 5.037693e-06
-1.319374e-05 -1.098607e-05 -3.415391e-06
-1.210921e-05 -1.099707e-05 -3.630554e-06
-1.622116e-05 -1.263721e-05 -3.408226e-06
-2.054637e-05 -8.949004e-06 -4.178201e-06
-1.190532e-05 -1.063207e-05 -3.097208e-06
-8.681224e-06 -1.404579e-05 -2.469280e-06
-9.167617e-06 -1.411431e-05 -2.849821e-06
-8.825564e-06 -1.356254e-05 -2.372650e-06
-1.791421e-05 -1.102777e-05 -3.420367e-06
-3.988803e-06 1.140295e-05 -3.750965e-06
0.000000e+00 1.045292e-05 -3.568191e-06
0.000000e+00 1.085720e-05 -4.128524e-06
0.000000e+00 6.796084e-06 -3.881783e-06
-1.586421e-05 -2.242780e-06 -4.714267e-06
-2.484899e-05 5.962569e-07 -5.073150e-06
0.000000e+00 -2.091941e-06 -3.831481e-06
0.000000e+00 -2.356073e-06 -4.428105e-06
-1.799815e-05 6.114020e-05 4.049390e-06
-2.271330e-05 -1.039183e-05 -1.492610e-06
-2.498136e-05 -1.208661e-05 -1.942729e-06
-1.404324e-05 1.129843e-07 1.725708e-06
-2.453417e-05 -1.269141e-05 -9.398511e-06
-2.989953e-05 -1.758703e-05 -7.657977e-06
-3.336453e-05 -6.850331e-05 -1.441924e-05
-3.464098e-05 -7.516597e-05 -1.943523e-05
-3.394792e-05 -1.242742e-04 -3.968871e-05
-3.470026e-05 -8.218422e-05 -2.901990e-05
-3.221930e-05 -3.973011e-05 -6.459623e-06
-2.748918e-05 -5.578744e-05 -1.201802e-05
-3.917296e-05 -5.101199e-05 -9.228103e-06
-3.684766e-05 -1.106867e-04 -3.712637e-05
-2.667079e-05 -1.078861e-04 -3.818204e-05
-4.504812e-05 -9.543762e-05 -3.084873e-05
2.739081e-05 6.253150e-06 1.864347e-06
3.200669e-05 4.223767e-06 3.439816e-06
-3.438486e-05 -5.292226e-05 -4.110514e-05
-2.116996e-05 -1.616617e-05 -2.952499e-05
-4.486570e-05 -5.836703e-05 -4.709914e-05
-2.264042e-05 -2.160686e-05 -3.762947e-05
-2.964622e-05 -9.580883e-06 -2.963442e-05
2.578238e-07 1.380089e-05 -1.568532e-06
-6.346801e-07 1.506726e-05 -2.009817e-06
3.396874e-07 1.490366e-05 -1.642895e-06
3.389857e-05 -2.296746e-06 5.646735e-06
3.232100e-05 -3.585707e-06 5.604296e-06
3.819098e-05 -1.135520e-06 6.780588e-06
3.471806e-05 -1.092881e-06 5.876449e-06
3.100461e-05 -2.904018e-06 4.821810e-06
3.137480e-05 -2.741182e-06 4.883992e-06
3.702803e-05 -5.360558e-07 5.884961e-06
3.199247e-05 -3.445347e-06 5.557118e-06
2.759396e-05 -4.724707e-06 4.573560e-06
3.005266e-05 -4.001488e-06 4.953887e-06
9.014976e-07 1.272469e-05 -1.217517e-06
0.000000e+00 1.114662e-05 -9.267325e-07
0.000000e+00 1.265968e-05 -1.309769e-06
1.965406e-05 1.048452e-05 1.289226e-06
1.721125e-05 1.207570e-05 1.086896e-06
1.720886e-05 1.111973e-05 9.395043e-07
1.967584e-05 7.953825e-06 1.463116e-06
3.423251e-06 -1.556278e-05 5.280220e-07
4.646957e-06 -1.457901e-05 8.745286e-07
1.508481e-06 -1.573062e-05 6.913480e-08
4.700235e-06 -1.456854e-05 6.573854e-07
1.788200e-06 -1.564742e-05 1.155079e-07
5.940991e-06 -1.467045e-05 9.396159e-07
7.661719e-06 -1.347384e-05 1.558817e-06
4.776993e-06 -1.565236e-05 7.657164e-07
4.689782e-06 -1.551087e-05 9.676517e-07
-9.066346e-06 1.011161e-05 -1.963526e-05
0.000000e+00 1.549896e-05 -1.701005e-05
-1.128805e-05 7.127035e-06 -1.636939e-05
-7.966527e-06 1.123554e-05 -2.320505e-05
0.000000e+00 9.907044e-06 -1.342561e-05
-1.924867e-05 -3.354246e-06 -2.308241e-05
-1.531993e-05 5.751356e-06 -1.623519e-05
0.000000e+00 1.555662e-05 -1.634696e-05
-1.173345e-05 1.603538e-05 -2.264043e-05
-2.142640e-05 6.954932e-05 4.481327e-06
-2.292712e-05 6.912336e-05 1.236845e-06
-1.785489e-05 6.127433e-05 8.358976e-06
-2.776564e-05 8.502562e-05 9.765013e-07
8.007171e-05 1.685901e-05 1.979901e-05
4.562017e-05 6.389615e-06 -1.530876e-06
5.980858e-05 3.236234e-05 1.523281e-06