# vtk DataFile Version 2.0
Simplicial Mesh Example
ASCII
DATASET UNSTRUCTURED_GRID
POINTS 955 double
1.739130e+04 -4.000000e+05 0.000000e+00
3.431474e+04 -3.668361e+05 0.000000e+00
5.217391e+04 -4.000000e+05 0.000000e+00
-3.668348e+05 1.033122e+05 0.000000e+00
3.693733e+05 -3.529960e+05 0.000000e+00
-4.000000e+05 8.695652e+04 0.000000e+00
-2.962358e+05 -3.323448e+05 0.000000e+00
-3.357456e+05 -3.422369e+05 0.000000e+00
-2.772919e+05 -3.669732e+05 0.000000e+00
3.335574e+05 -1.858748e+05 0.000000e+00
3.000000e+05 -1.659466e+05 0.000000e+00
-1.716829e+05 -3.668361e+05 0.000000e+00
-1.913043e+05 -4.000000e+05 0.000000e+00
2.061857e+05 3.668333e+05 0.000000e+00
1.565217e+05 4.000000e+05 0.000000e+00
1.716839e+05 3.668365e+05 0.000000e+00
1.913043e+05 4.000000e+05 0.000000e+00
-8.695652e+04 4.000000e+05 0.000000e+00
-6.863978e+04 3.668364e+05 0.000000e+00
8.695652e+04 -4.000000e+05 0.000000e+00
6.864043e+04 -3.668360e+05 0.000000e+00
-1.217391e+05 -4.000000e+05 0.000000e+00
-1.373218e+05 -3.668365e+05 0.000000e+00
-1.565217e+05 -4.000000e+05 0.000000e+00
-3.668349e+05 1.375908e+05 0.000000e+00
-4.000000e+05 1.565217e+05 0.000000e+00
3.668265e+05 -1.714683e+05 0.000000e+00
4.000000e+05 -1.913043e+05 0.000000e+00
4.000000e+05 -1.565217e+05 0.000000e+00
4.000000e+05 1.565217e+05 0.000000e+00
3.668383e+05 1.722952e+05 0.000000e+00
4.000000e+05 -8.695652e+04 0.000000e+00
3.668372e+05 -1.026508e+05 0.000000e+00
4.000000e+05 -5.217391e+04 0.000000e+00
3.668380e+05 -6.826645e+04 0.000000e+00
-1.666667e+05 -3.000000e+05 0.000000e+00
3.334882e+05 -2.202831e+05 0.000000e+00
3.000000e+05 -1.994599e+05 0.000000e+00
-1.862587e+05 -3.335758e+05 0.000000e+00
-5.217391e+04 4.000000e+05 0.000000e+00
-1.739130e+04 4.000000e+05 0.000000e+00
-3.431405e+04 3.668365e+05 0.000000e+00
-1.716148e+05 3.668263e+05 0.000000e+00
-1.913043e+05 4.000000e+05 0.000000e+00
-2.059314e+05 3.667832e+05 0.000000e+00
3.316724e+05 -2.967750e+05 0.000000e+00
3.666108e+05 -2.775848e+05 0.000000e+00
3.397681e+05 -3.369212e+05 0.000000e+00
-3.335738e+05 1.866432e+05 0.000000e+00
-3.000000e+05 1.673499e+05 0.000000e+00
-3.000000e+05 2.005124e+05 0.000000e+00
-3.335722e+05 1.528704e+05 0.000000e+00
2.962288e+05 3.323792e+05 0.000000e+00
2.772894e+05 3.669850e+05 0.000000e+00
3.357389e+05 3.423035e+05 0.000000e+00
-3.422611e+05 3.357632e+05 0.000000e+00
-3.323575e+05 2.962961e+05 0.000000e+00
-3.669772e+05 2.773495e+05 0.000000e+00
-3.000000e+05 1.341874e+05 0.000000e+00
-3.335717e+05 1.191216e+05 0.000000e+00
3.668370e+05 3.487991e+04 0.000000e+00
3.668382e+05 4.985393e+02 0.000000e+00
4.000000e+05 1.739130e+04 0.000000e+00
3.335703e+05 -1.518628e+05 0.000000e+00
3.335746e+05 -1.178848e+05 0.000000e+00
3.000000e+05 -1.324332e+05 0.000000e+00
-1.185180e+05 -3.335740e+05 0.000000e+00
-1.333333e+05 -3.000000e+05 0.000000e+00
-1.000000e+05 -3.000000e+05 0.000000e+00
4.000000e+05 8.695652e+04 0.000000e+00
3.668311e+05 6.925743e+04 0.000000e+00
-6.666667e+04 -3.000000e+05 0.000000e+00
-8.466381e+04 -3.335739e+05 0.000000e+00
-5.081027e+04 -3.335738e+05 0.000000e+00
-1.092350e+01 -3.668362e+05 0.000000e+00
-1.523098e+05 3.335679e+05 0.000000e+00
-1.666667e+05 3.000000e+05 0.000000e+00
-1.861609e+05 3.335431e+05 0.000000e+00
-1.184568e+05 3.335728e+05 0.000000e+00
-1.333333e+05 3.000000e+05 0.000000e+00
-3.668344e+05 6.903915e+04 0.000000e+00
-4.000000e+05 5.217391e+04 0.000000e+00
-3.668332e+05 3.476756e+04 0.000000e+00
3.667880e+05 2.064991e+05 0.000000e+00
4.000000e+05 1.913043e+05 0.000000e+00
4.000000e+05 2.260870e+05 0.000000e+00
3.668383e+05 -3.388371e+04 0.000000e+00
1.695789e+04 3.335742e+05 0.000000e+00
3.333333e+04 3.000000e+05 0.000000e+00
5.081153e+04 3.335742e+05 0.000000e+00
-6.866241e+04 -3.668363e+05 0.000000e+00
-5.217391e+04 -4.000000e+05 0.000000e+00
-3.433659e+04 -3.668363e+05 0.000000e+00
8.466523e+04 3.335742e+05 0.000000e+00
6.666667e+04 3.000000e+05 0.000000e+00
-3.650927e+05 -2.750990e+05 0.000000e+00
1.373228e+05 3.668367e+05 0.000000e+00
-1.029893e+05 -3.668364e+05 0.000000e+00
-2.061853e+05 -3.668319e+05 0.000000e+00
3.679246e+05 -3.150758e+05 0.000000e+00
4.000000e+05 -2.956522e+05 0.000000e+00
-3.668488e+05 -6.807684e+04 0.000000e+00
-3.668495e+05 -1.024032e+05 0.000000e+00
-3.777286e+05 3.768122e+05 0.000000e+00
-3.731516e+05 3.486385e+05 0.000000e+00
8.460407e+04 -3.335732e+05 0.000000e+00
1.000000e+05 -3.000000e+05 0.000000e+00
1.184575e+05 -3.335722e+05 0.000000e+00
-4.000000e+05 -2.608696e+05 0.000000e+00
-3.668282e+05 4.980022e+02 0.000000e+00
3.000000e+05 1.620150e+03 0.000000e+00
1.523100e+05 -3.335678e+05 0.000000e+00
1.666667e+05 -3.000000e+05 0.000000e+00
1.861576e+05 -3.335456e+05 0.000000e+00
-2.411432e+05 -3.668207e+05 0.000000e+00
-2.260870e+05 -4.000000e+05 0.000000e+00
-3.328022e+05 -2.535374e+05 0.000000e+00
2.260870e+05 4.000000e+05 0.000000e+00
3.335746e+05 5.195984e+04 0.000000e+00
3.000000e+05 6.864685e+04 0.000000e+00
3.000000e+05 3.513350e+04 0.000000e+00
3.335698e+05 8.592243e+04 0.000000e+00
4.000000e+05 -1.217391e+05 0.000000e+00
3.335767e+05 -1.597580e+04 0.000000e+00
3.000000e+05 -3.189320e+04 0.000000e+00
4.000000e+05 -1.739130e+04 0.000000e+00
-3.335594e+05 2.207671e+05 0.000000e+00
-3.246449e+05 -3.150201e+05 0.000000e+00
-3.608008e+05 -3.135540e+05 0.000000e+00
-3.306775e+05 -2.872043e+05 0.000000e+00
-2.333333e+05 -3.000000e+05 0.000000e+00
-2.558329e+05 -3.333551e+05 0.000000e+00
-2.204932e+05 -3.335596e+05 0.000000e+00
-2.000000e+05 -3.000000e+05 0.000000e+00
1.333333e+05 -3.000000e+05 0.000000e+00
-3.000000e+05 -2.326501e+05 0.000000e+00
-3.334238e+05 -2.194600e+05 0.000000e+00
3.667086e+05 -2.411486e+05 0.000000e+00
3.331504e+05 -2.559007e+05 0.000000e+00
2.000000e+05 3.000000e+05 0.000000e+00
1.862602e+05 3.335762e+05 0.000000e+00
2.204925e+05 3.335627e+05 0.000000e+00
2.000000e+05 -3.000000e+05 0.000000e+00
3.000000e+05 2.018902e+05 0.000000e+00
3.334338e+05 2.210121e+05 0.000000e+00
-4.000000e+05 -2.260870e+05 0.000000e+00
-3.664180e+05 -2.401224e+05 0.000000e+00
-3.667926e+05 -2.056104e+05 0.000000e+00
-3.668215e+05 2.412511e+05 0.000000e+00
-4.000000e+05 2.260870e+05 0.000000e+00
3.000000e+05 3.000000e+05 0.000000e+00
3.306623e+05 2.876205e+05 0.000000e+00
-5.074947e+04 3.335740e+05 0.000000e+00
-6.666667e+04 3.000000e+05 0.000000e+00
-8.460317e+04 3.335738e+05 0.000000e+00
-4.000000e+05 -1.565217e+05 0.000000e+00
-3.668386e+05 -1.711937e+05 0.000000e+00
-3.668436e+05 -1.367793e+05 0.000000e+00
3.336147e+05 1.538073e+05 0.000000e+00
2.260870e+05 -4.000000e+05 0.000000e+00
2.059253e+05 -3.667880e+05 0.000000e+00
2.402710e+05 -3.664674e+05 0.000000e+00
4.000000e+05 1.217391e+05 0.000000e+00
3.668342e+05 1.036336e+05 0.000000e+00
1.029661e+05 -3.668356e+05 0.000000e+00
1.217391e+05 -4.000000e+05 0.000000e+00
1.372913e+05 -3.668342e+05 0.000000e+00
4.000000e+05 2.956522e+05 0.000000e+00
3.650890e+05 2.754572e+05 0.000000e+00
3.607920e+05 3.136982e+05 0.000000e+00
-3.691108e+05 3.139776e+05 0.000000e+00
-4.000000e+05 2.956522e+05 0.000000e+00
-4.000000e+05 1.217391e+05 0.000000e+00
3.668347e+05 -1.370424e+05 0.000000e+00
3.667968e+05 -2.060541e+05 0.000000e+00
1.565217e+05 -4.000000e+05 0.000000e+00
-8.695652e+04 -4.000000e+05 0.000000e+00
3.000000e+05 1.021602e+05 0.000000e+00
3.335748e+05 1.198782e+05 0.000000e+00
3.433740e+04 3.668366e+05 0.000000e+00
1.739130e+04 4.000000e+05 0.000000e+00
1.166851e+01 3.668366e+05 0.000000e+00
1.185195e+05 3.335744e+05 0.000000e+00
1.333333e+05 3.000000e+05 0.000000e+00
1.523779e+05 3.335748e+05 0.000000e+00
1.666667e+05 3.000000e+05 0.000000e+00
4.000000e+05 -2.608696e+05 0.000000e+00
-3.333333e+04 -3.000000e+05 0.000000e+00
-1.695675e+04 -3.335737e+05 0.000000e+00
-3.702024e+05 -3.502584e+05 0.000000e+00
-4.000000e+05 -3.304348e+05 0.000000e+00
5.075044e+04 -3.335735e+05 0.000000e+00
3.335765e+05 -4.994471e+04 0.000000e+00
3.000000e+05 -6.540655e+04 0.000000e+00
3.335760e+05 -8.391401e+04 0.000000e+00
1.029903e+05 3.668367e+05 0.000000e+00
8.695652e+04 4.000000e+05 0.000000e+00
6.866331e+04 3.668366e+05 0.000000e+00
-3.335741e+05 -1.854110e+05 0.000000e+00
-3.335907e+05 -1.513473e+05 0.000000e+00
1.217391e+05 4.000000e+05 0.000000e+00
-1.029655e+05 3.668361e+05 0.000000e+00
-1.217391e+05 4.000000e+05 0.000000e+00
-1.372909e+05 3.668345e+05 0.000000e+00
-3.333582e+05 2.559979e+05 0.000000e+00
-1.565217e+05 4.000000e+05 0.000000e+00
-3.333333e+04 3.000000e+05 0.000000e+00
-1.689577e+04 3.335741e+05 0.000000e+00
4.000000e+05 -2.260870e+05 0.000000e+00
4.000000e+05 5.217391e+04 0.000000e+00
-3.000000e+05 -3.000000e+05 0.000000e+00
-2.666667e+05 -3.000000e+05 0.000000e+00
2.749236e+05 -3.652724e+05 0.000000e+00
2.956522e+05 -4.000000e+05 0.000000e+00
-2.260870e+05 4.000000e+05 0.000000e+00
3.246361e+05 3.151522e+05 0.000000e+00
-2.956522e+05 -4.000000e+05 0.000000e+00
-3.139562e+05 -3.691022e+05 0.000000e+00
-3.335708e+05 5.163284e+04 0.000000e+00
-3.000000e+05 6.786232e+04 0.000000e+00
-3.335713e+05 8.537688e+04 0.000000e+00
-3.502741e+05 3.702051e+05 0.000000e+00
-3.000000e+05 -1.653002e+05 0.000000e+00
3.139513e+05 3.691251e+05 0.000000e+00
2.956522e+05 4.000000e+05 0.000000e+00
3.668475e+05 1.379968e+05 0.000000e+00
1.716142e+05 -3.668268e+05 0.000000e+00
4.000000e+05 -3.652174e+05 0.000000e+00
4.000000e+05 -4.000000e+05 0.000000e+00
1.913043e+05 -4.000000e+05 0.000000e+00
-2.200076e+05 3.334178e+05 0.000000e+00
-2.000000e+05 3.000000e+05 0.000000e+00
3.486284e+05 3.731663e+05 0.000000e+00
3.701971e+05 3.502998e+05 0.000000e+00
-3.668327e+05 -3.377970e+04 0.000000e+00
3.000000e+05 1.356736e+05 0.000000e+00
-1.523763e+05 -3.335744e+05 0.000000e+00
-2.873505e+05 3.306746e+05 0.000000e+00
-3.000000e+05 3.000000e+05 0.000000e+00
3.000000e+05 -9.891990e+04 0.000000e+00
-4.000000e+05 -2.956522e+05 0.000000e+00
-2.956522e+05 4.000000e+05 0.000000e+00
-2.752247e+05 3.650898e+05 0.000000e+00
-3.136055e+05 3.608027e+05 0.000000e+00
-3.000000e+05 -2.663251e+05 0.000000e+00
-3.000000e+05 1.010248e+05 0.000000e+00
-3.000000e+05 2.336749e+05 0.000000e+00
[...]
POINT_DATA 955
VECTORS displacement double
5.281138e-05 0.000000e+00 6.815302e-06
5.183834e-05 -9.086326e-06 5.730770e-06
5.199165e-05 0.000000e+00 7.266258e-06
-6.060552e-06 4.015369e-05 -1.461796e-05
3.126696e-06 5.819278e-06 -3.422009e-07
0.000000e+00 2.945844e-05 -1.371140e-05
-3.006548e-05 -1.985869e-05 -4.941982e-07
-2.122434e-05 -5.724558e-06 5.560311e-06
-2.997302e-05 -1.412779e-05 4.963616e-06
-6.821536e-06 1.586957e-05 -3.197314e-06
-1.323424e-05 1.618317e-05 -3.756175e-06
-8.181529e-06 -3.462372e-05 -2.998201e-06
-1.493417e-05 0.000000e+00 2.411786e-06
3.654044e-05 -1.219352e-06 6.380741e-06
4.601098e-05 0.000000e+00 8.559293e-06
4.277540e-05 1.801510e-07 7.781660e-06
3.992083e-05 0.000000e+00 7.081856e-06
3.858452e-05 0.000000e+00 2.022086e-05
4.307286e-05 2.288643e-05 1.916829e-05
4.839704e-05 0.000000e+00 6.891518e-06
4.935002e-05 -4.053711e-06 6.064102e-06
1.488191e-05 0.000000e+00 1.331950e-06
7.380002e-06 -3.604769e-05 -3.097042e-06
-5.115796e-07 0.000000e+00 1.388277e-06
-1.012196e-05 4.553473e-05 -1.038464e-05
0.000000e+00 4.159180e-05 -5.530766e-06
-3.987501e-06 1.463031e-05 -3.389897e-06
0.000000e+00 1.508603e-05 -2.997506e-06
0.000000e+00 1.363833e-05 -3.635407e-06
0.000000e+00 -1.729858e-05 -8.233920e-07
2.114631e-08 -1.722267e-05 -4.336165e-07
0.000000e+00 7.027355e-06 -4.421689e-06
-6.937628e-06 9.067731e-06 -4.376747e-06
0.000000e+00 2.475004e-06 -4.551449e-06
-7.735465e-06 4.779327e-06 -4.589662e-06
-1.220934e-05 -1.252667e-04 -4.303310e-05
-3.208436e-06 1.605978e-05 -2.437243e-06
-7.951513e-06 1.712064e-05 -2.922316e-06
-1.681843e-05 -6.913450e-05 -1.591321e-05
4.692056e-05 0.000000e+00 1.914970e-05
5.307885e-05 0.000000e+00 1.783169e-05
5.022107e-05 1.940736e-05 1.791350e-05
1.327032e-05 2.639982e-05 2.116538e-05
8.635162e-06 0.000000e+00 2.209208e-05
4.144759e-06 2.487422e-05 2.140406e-05
4.079619e-06 1.205631e-05 -8.320941e-07
1.077864e-06 1.317341e-05 -1.353012e-06
5.634193e-06 7.838921e-06 -3.422757e-07
-2.088674e-05 6.634166e-05 -4.308822e-06
-3.107349e-05 9.913498e-05 -1.788156e-05
-2.706235e-05 8.862175e-05 -6.124263e-06
-2.177179e-05 6.905160e-05 -1.303035e-05
1.814951e-05 -6.322282e-06 3.636262e-06
2.301548e-05 -2.867377e-06 4.333219e-06
1.136683e-05 -5.925728e-06 3.179898e-06
-7.219210e-06 2.605654e-05 2.045431e-05
-1.058998e-05 4.150608e-05 1.698226e-05
-6.855570e-06 4.004799e-05 1.527207e-05
-3.257068e-05 1.097520e-04 -2.941816e-05
-1.837524e-05 6.849225e-05 -1.925313e-05
-6.653466e-06 -9.126350e-06 -3.820910e-06
-7.609814e-06 -4.744047e-06 -4.317417e-06
0.000000e+00 -7.016702e-06 -4.041079e-06
-1.016340e-05 1.422647e-05 -3.872409e-06
-1.306658e-05 1.129519e-05 -4.410339e-06
-1.829501e-05 1.375602e-05 -4.423277e-06
1.447581e-05 -7.486623e-05 -1.591532e-05
4.967378e-06 -1.289919e-04 -4.329647e-05
2.206360e-05 -1.198125e-04 -3.827795e-05
0.000000e+00 -1.428852e-05 -2.689005e-06
-5.337058e-06 -1.274929e-05 -3.115643e-06
3.473048e-05 -9.958670e-05 -2.963439e-05
2.937463e-05 -6.699255e-05 -1.274143e-05
4.048472e-05 -5.405171e-05 -8.225719e-06
5.085698e-05 -1.549763e-05 4.546486e-06
1.715056e-05 5.393990e-05 1.840832e-05
9.393938e-06 8.284773e-05 1.294802e-05
6.993770e-06 5.220715e-05 1.883172e-05
2.794650e-05 5.276416e-05 1.799087e-05
2.075194e-05 8.314411e-05 1.265738e-05
2.233341e-06 3.339295e-05 -1.422550e-05
0.000000e+00 2.359238e-05 -1.232760e-05
1.488979e-05 2.697233e-05 -8.543194e-06
1.634330e-06 -1.648823e-05 5.018813e-07
0.000000e+00 -1.697090e-05 4.870270e-08
0.000000e+00 -1.573829e-05 8.847338e-07
-7.945312e-06 3.480409e-08 -4.574449e-06
5.482528e-05 2.636839e-05 1.450093e-05
5.302254e-05 3.327919e-05 1.197392e-05
5.497646e-05 1.882328e-05 1.306498e-05
3.631745e-05 -2.935527e-05 -4.325100e-08
4.161945e-05 0.000000e+00 4.055499e-06
4.583316e-05 -2.268424e-05 2.425034e-06
5.286358e-05 1.206598e-05 1.144615e-05
5.143057e-05 2.229386e-05 1.095105e-05
-1.290896e-05 3.270239e-06 -7.562674e-06
4.833948e-05 2.119730e-06 9.372554e-06
2.296329e-05 -3.421230e-05 -2.089828e-06
-2.049806e-05 -2.952362e-05 -1.106177e-06
2.390047e-06 9.949457e-06 -7.855383e-07
0.000000e+00 1.165127e-05 -1.081278e-06
2.834460e-05 2.203148e-05 -4.274224e-06
1.933362e-05 2.122296e-05 -1.276547e-05
-2.525058e-06 8.700019e-06 2.163077e-05
-3.467900e-06 1.879941e-05 2.084195e-05
4.300694e-05 -4.050228e-06 3.793711e-06
3.293892e-05 -5.976052e-07 1.401204e-06
3.755487e-05 1.977163e-06 3.902363e-06
0.000000e+00 1.047594e-05 -9.007170e-06
2.613226e-05 2.357827e-05 -1.501344e-06
-2.352791e-05 -4.427287e-06 -4.752943e-06
3.160840e-05 5.697655e-06 3.363578e-06
2.205977e-05 1.016387e-05 1.625297e-06
2.570782e-05 7.722144e-06 2.542228e-06
-2.811146e-05 -2.200711e-05 1.955495e-06
-2.458120e-05 0.000000e+00 4.197061e-06
-2.391896e-05 -1.408990e-05 -2.023895e-05
3.344619e-05 0.000000e+00 5.844411e-06
-1.210921e-05 -1.099707e-05 -3.630554e-06
-1.622116e-05 -1.263721e-05 -3.408226e-06
-2.054637e-05 -8.949004e-06 -4.178201e-06
-9.167617e-06 -1.411431e-05 -2.849821e-06
0.000000e+00 1.085720e-05 -4.128524e-06
-1.586421e-05 -2.242780e-06 -4.714267e-06
-2.484899e-05 5.962569e-07 -5.073150e-06
0.000000e+00 -2.356073e-06 -4.428105e-06
-1.799815e-05 6.114020e-05 4.049390e-06
-2.498136e-05 -1.208661e-05 -1.942729e-06
-1.404324e-05 1.129843e-07 1.725708e-06
-2.453417e-05 -1.269141e-05 -9.398511e-06
-3.470026e-05 -8.218422e-05 -2.901990e-05
-3.221930e-05 -3.973011e-05 -6.459623e-06
-2.748918e-05 -5.578744e-05 -1.201802e-05
-2.667079e-05 -1.078861e-04 -3.818204e-05
2.739081e-05 6.253150e-06 1.864347e-06
-3.438486e-05 -5.292226e-05 -4.110514e-05
-2.116996e-05 -1.616617e-05 -2.952499e-05
-6.346801e-07 1.506726e-05 -2.009817e-06
3.396874e-07 1.490366e-05 -1.642895e-06
3.232100e-05 -3.585707e-06 5.604296e-06
3.819098e-05 -1.135520e-06 6.780588e-06
3.199247e-05 -3.445347e-06 5.557118e-06
1.721125e-05 1.207570e-05 1.086896e-06
4.776993e-06 -1.565236e-05 7.657164e-07
4.689782e-06 -1.551087e-05 9.676517e-07
0.000000e+00 1.549896e-05 -1.701005e-05
-1.128805e-05 7.127035e-06 -1.636939e-05
-7.966527e-06 1.123554e-05 -2.320505e-05
-8.518763e-06 4.638483e-05 1.003875e-05
0.000000e+00 4.421095e-05 8.031668e-06
1.539626e-05 -9.125761e-06 3.090941e-06
9.907297e-06 -1.090628e-05 2.507620e-06
4.632431e-05 4.239221e-05 1.669948e-05
4.153842e-05 6.988823e-05 1.280781e-05
3.808085e-05 4.870498e-05 1.746669e-05
0.000000e+00 2.480404e-05 -2.313249e-05
-1.517838e-06 1.564979e-05 -2.524153e-05
8.666730e-06 1.885909e-05 -2.115883e-05
-1.915097e-06 -1.698143e-05 -9.148619e-07
2.375660e-05 0.000000e+00 2.289537e-06
2.614438e-05 4.191438e-06 2.703352e-06
2.035034e-05 4.501261e-06 1.718970e-06
0.000000e+00 -1.637984e-05 -1.809617e-06
-3.639621e-06 -1.539696e-05 -2.268666e-06
4.467927e-05 -4.272633e-07 5.775407e-06
4.294254e-05 0.000000e+00 5.795436e-06
3.876058e-05 2.034325e-06 4.899956e-06
0.000000e+00 -1.078281e-05 2.305277e-06
4.548410e-06 -1.233940e-05 2.040165e-06
6.348783e-06 -8.960203e-06 2.659629e-06
-4.812423e-06 3.007353e-05 1.883237e-05
0.000000e+00 3.345875e-05 1.730416e-05
0.000000e+00 3.618099e-05 -1.113913e-05
-5.613290e-06 1.242531e-05 -3.943130e-06
-2.321168e-06 1.552789e-05 -2.723913e-06
3.657316e-05 0.000000e+00 4.625841e-06
2.974803e-05 0.000000e+00 2.447295e-06
-1.110195e-05 -1.504891e-05 -2.476440e-06
-5.604686e-06 -1.613608e-05 -1.941558e-06
5.648310e-05 1.146396e-05 1.480138e-05
5.626802e-05 0.000000e+00 1.596324e-05
5.471567e-05 1.537730e-05 1.650940e-05
4.901636e-05 6.483296e-06 9.790203e-06
4.338720e-05 5.815355e-06 8.247637e-06
4.396157e-05 2.108925e-06 8.205242e-06
3.800803e-05 3.520369e-07 6.860428e-06
0.000000e+00 1.402948e-05 -1.675422e-06
4.202594e-05 -7.420181e-05 -1.944013e-05
4.691902e-05 -3.936250e-05 -3.575985e-06
-1.037565e-05 2.954657e-07 8.184353e-06
0.000000e+00 2.747869e-06 5.782425e-06
4.710226e-05 -1.287149e-05 2.712580e-06
-1.605764e-05 2.664547e-06 -4.876654e-06
-2.432102e-05 5.630412e-06 -5.126603e-06
-1.511286e-05 7.321859e-06 -4.772837e-06
5.282174e-05 4.660157e-06 1.112928e-05
5.495048e-05 0.000000e+00 1.218304e-05
5.570904e-05 7.801734e-06 1.297794e-05
-1.222624e-05 -1.389313e-05 -3.281561e-05
2.948049e-06 -1.043516e-05 -2.808680e-05
5.116797e-05 0.000000e+00 1.031017e-05
3.384118e-05 2.534271e-05 2.006321e-05
2.864793e-05 0.000000e+00 2.117446e-05
2.352936e-05 2.661288e-05 2.070348e-05
-1.449065e-05 5.388503e-05 1.093909e-05
1.819504e-05 0.000000e+00 2.165926e-05
4.835363e-05 5.836520e-05 1.289252e-05
5.198613e-05 3.477239e-05 1.573333e-05
0.000000e+00 1.520258e-05 -2.372889e-06
0.000000e+00 -1.108950e-05 -3.458637e-06
-3.132761e-05 -2.975210e-05 -1.132298e-05
-3.563995e-05 -5.346777e-05 -1.900326e-05
1.501163e-05 4.675909e-06 9.036149e-07
1.286945e-05 0.000000e+00 6.441969e-07
7.512381e-07 0.000000e+00 2.237525e-05
1.231506e-05 -8.366328e-06 2.984137e-06
-2.772275e-05 0.000000e+00 8.582537e-06
-2.526819e-05 -6.180747e-06 8.001293e-06
9.808393e-06 5.942212e-05 -1.118193e-05
-9.284880e-06 1.187701e-04 -2.507558e-05
-7.761474e-06 6.516395e-05 -1.907149e-05
-5.271737e-06 1.190983e-05 2.154199e-05
-1.695833e-05 -7.034383e-05 -4.766714e-05
1.608812e-05 -3.060116e-06 3.667936e-06
1.993228e-05 0.000000e+00 4.048278e-06
-1.812029e-06 -1.688084e-05 -1.359829e-06
3.239494e-05 3.469323e-06 3.806370e-06
0.000000e+00 4.312377e-06 -3.601329e-07
0.000000e+00 0.000000e+00 -2.663619e-07
3.001659e-05 0.000000e+00 3.404535e-06
-1.314502e-06 4.805723e-05 1.926391e-05
-6.428273e-07 7.797116e-05 1.363539e-05
9.570364e-06 -2.841594e-06 3.278527e-06
5.350289e-06 -5.309510e-06 3.004130e-06
3.013416e-05 2.224791e-05 3.292610e-07
-5.618820e-06 -1.633889e-05 -1.412317e-06
-1.835476e-06 -7.567571e-05 -1.683883e-05
-9.589744e-06 3.678616e-05 1.963040e-05
-1.254070e-05 4.907018e-05 1.648836e-05
-2.209224e-05 1.013253e-05 -4.872486e-06
0.000000e+00 6.224482e-06 -8.556205e-07
-6.794359e-06 0.000000e+00 2.218800e-05
-6.590965e-06 2.005277e-05 2.158730e-05
-7.603708e-06 1.844699e-05 2.144287e-05
-3.439836e-05 -4.042558e-05 -2.573603e-05
-2.707136e-05 1.187698e-04 -3.440772e-05
-2.203702e-05 7.655553e-05 3.736323e-06
5.228111e-05 6.810408e-06 9.556572e-06
2.748948e-05 -1.701267e-06 -1.129210e-05
4.026291e-06 0.000000e+00 -1.257539e-07
6.441762e-05 1.907138e-05 2.212749e-05
9.925962e-05 -7.395330e-06 6.097415e-05
-6.085421e-06 0.000000e+00 2.193496e-05
1.055754e-04 3.440581e-05 7.375615e-05
5.919478e-05 3.245829e-05 2.042788e-05
2.990985e-05 -2.185050e-06 5.243252e-06
7.575017e-06 9.333772e-06 -2.104097e-07
6.315348e-06 3.774666e-06 -1.157936e-07
9.881680e-06 5.036826e-06 2.142735e-07
-1.762334e-05 6.335997e-05 1.118980e-05
0.000000e+00 4.035170e-05 1.342113e-05
-3.154366e-05 -6.747588e-05 -5.149236e-05
3.125795e-06 -1.481103e-05 1.329146e-06
0.000000e+00 -1.360755e-05 1.669909e-06
7.437977e-06 -1.351607e-05 1.813067e-06
1.804037e-05 0.000000e+00 1.367694e-06
1.094150e-05 8.935783e-06 2.245722e-07
1.528730e-05 8.829217e-06 8.730848e-07
9.455300e-06 1.256948e-05 -3.303960e-08
1.295010e-05 1.249412e-05 4.726698e-07
2.018506e-05 8.568467e-06 1.641261e-06
-7.047276e-06 4.250610e-05 1.939922e-05
2.399713e-06 1.493240e-05 -1.285209e-06
-2.593541e-06 1.657285e-05 -2.082664e-06
-1.107234e-05 4.894320e-05 -3.690168e-06
-1.027179e-05 4.934882e-05 3.527604e-06
2.096421e-05 -8.072608e-06 3.777951e-06
2.543763e-05 -5.042316e-06 4.536999e-06
2.649132e-05 -6.268260e-06 4.542863e-06
-2.890079e-05 0.000000e+00 6.668005e-06
0.000000e+00 4.451042e-05 1.449820e-06
-1.217668e-05 5.931089e-05 1.577722e-05
-7.842504e-06 6.997170e-05 1.462255e-05
-1.456573e-05 -6.949586e-06 -4.308419e-06
1.264665e-05 -1.180936e-05 2.415050e-06
9.115608e-06 -1.392243e-05 1.662803e-06
0.000000e+00 2.661239e-05 -1.915386e-05
-4.425813e-06 0.000000e+00 2.235955e-05
-9.880830e-06 3.437627e-05 1.948039e-05
2.672958e-05 0.000000e+00 4.850818e-06
7.282867e-05 7.386694e-05 4.422264e-05
3.969535e-05 4.546687e-05 6.382046e-06
2.865180e-05 1.034939e-04 6.241267e-06
4.803042e-05 1.310281e-05 9.668117e-06
-2.726328e-06 2.259418e-05 2.155372e-05
5.211545e-05 4.567641e-05 1.267377e-05
8.209193e-06 0.000000e+00 1.197496e-07
3.203489e-05 7.866161e-05 1.265643e-05
3.820163e-05 -1.152597e-05 -3.951915e-07
4.880381e-05 -2.456044e-05 3.461249e-07
0.000000e+00 0.000000e+00 1.171626e-05
0.000000e+00 1.448012e-06 1.029448e-05
-8.136252e-06 2.809439e-08 1.093926e-05
4.436501e-05 -4.901893e-05 -1.053583e-05
1.572549e-06 -1.674497e-05 6.501577e-08
0.000000e+00 2.390270e-05 1.990695e-05
-1.683966e-05 -1.643770e-06 9.879189e-06
-2.106432e-05 0.000000e+00 1.023826e-05
0.000000e+00 1.247537e-05 2.130276e-05
4.329171e-06 -2.412223e-06 3.122318e-06
1.316347e-05 0.000000e+00 3.524214e-06
0.000000e+00 2.056384e-05 -8.487870e-06
0.000000e+00 2.633353e-05 -1.283789e-05
0.000000e+00 2.395028e-05 -7.870724e-06
0.000000e+00 2.060544e-05 -2.231790e-05
0.000000e+00 8.232966e-06 -6.396656e-07
5.679415e-05 0.000000e+00 1.410927e-05
4.936199e-05 0.000000e+00 5.800547e-06
0.000000e+00 -7.374952e-06 2.758147e-06
0.000000e+00 2.135045e-05 -7.250969e-06
-1.165844e-05 0.000000e+00 1.123333e-05
0.000000e+00 0.000000e+00 2.171640e-05
6.573515e-06 0.000000e+00 3.216273e-06
4.243770e-05 -2.746329e-05 -4.193032e-06
0.000000e+00 -3.783082e-06 3.031725e-06
0.000000e+00 0.000000e+00 3.124099e-06
-3.637595e-06 0.000000e+00 2.177258e-05
6.467245e-06 1.199327e-05 -5.407010e-07
3.145427e-05 -5.493216e-05 -1.721678e-06
1.435019e-05 -6.398144e-05 -2.307272e-05
3.966404e-05 -2.218552e-05 1.328199e-06
-1.188137e-06 -1.680995e-05 -6.245985e-07
8.036484e-07 -1.661180e-05 -1.265406e-07
7.705450e-05 -2.418406e-05 4.383714e-05
5.491410e-05 -1.461232e-05 1.557430e-05
2.373990e-06 -1.612200e-05 2.426487e-07
-2.872402e-06 -1.652288e-05 -8.613392e-07
4.585550e-05 -3.308597e-05 9.645432e-06
4.133640e-05 -5.102686e-05 8.873093e-06
5.181868e-05 -4.506638e-05 2.012414e-05
-7.096166e-07 -1.666168e-05 -4.634250e-07
-1.373230e-07 -1.647100e-05 -2.961571e-07
3.788907e-07 -1.654847e-05 -2.157841e-07
6.423625e-05 -3.456701e-05 3.259356e-05
5.467785e-05 -2.789190e-05 1.834087e-05
1.133415e-06 -1.631728e-05 -3.102803e-08
-1.488533e-06 -1.652128e-05 -5.690833e-07
2.095769e-05 2.542045e-04 -8.633649e-05
2.340330e-05 1.616607e-04 -4.166525e-05
1.729084e-05 9.728090e-06 3.010821e-06
1.470408e-05 2.273337e-05 1.203905e-06
2.131971e-06 -1.384837e-05 4.808762e-07
-5.922718e-07 -1.164859e-05 4.784408e-07
8.150149e-06 -6.946262e-06 1.849910e-06
1.754628e-05 -6.281159e-06 3.162384e-06
3.420693e-05 8.979622e-05 -8.293992e-06
8.359318e-06 7.272153e-05 -1.054486e-05
4.899896e-05 3.400428e-05 9.622663e-06
5.019453e-05 4.957773e-05 9.597004e-06
3.580869e-05 4.392251e-05 3.021263e-06
4.517851e-05 4.904326e-05 6.075682e-06
-4.251523e-05 1.765066e-04 -5.343204e-05
6.077291e-05 4.182877e-03 -1.344962e-03
-1.685646e-05 1.430387e-03 -5.718862e-04
-1.641344e-04 2.143859e-03 -6.154258e-04
4.505575e-05 1.749251e-03 -6.434591e-04
4.853378e-05 6.659026e-05 8.957828e-06
4.381101e-05 8.384965e-05 7.496271e-06
3.554308e-05 9.862468e-05 5.946168e-06
-3.871818e-05 2.020558e-04 -5.761520e-05
-2.812801e-05 2.039665e-04 -4.491539e-05
-1.364969e-05 1.762853e-04 -2.685622e-05
-1.424340e-05 2.383374e-04 -5.817759e-05
-2.993114e-05 2.767262e-04 -8.230754e-05
9.287955e-08 1.437681e-04 -8.679519e-06
4.574194e-05 2.093707e-05 8.972285e-06
4.119308e-05 1.052216e-05 7.909987e-06
1.131154e-05 4.168170e-05 -2.323228e-06
-1.367493e-04 1.065609e-03 -7.937507e-05
-2.428317e-05 4.202846e-04 -1.621069e-05
-5.715029e-05 3.590119e-04 -8.946517e-05
-9.342554e-05 6.917599e-04 -1.754816e-04
-2.264959e-04 3.432678e-03 -1.011264e-04
-1.355100e-04 1.146510e-03 -3.450507e-04
-5.318319e-05 1.163085e-03 -4.343532e-04
1.831604e-05 1.794086e-04 -2.716099e-05
3.027860e-05 1.571591e-04 -2.102455e-05
1.980778e-05 2.751574e-04 -8.779674e-05
1.025739e-05 -1.356282e-05 1.635324e-06
4.071679e-06 -1.509720e-05 5.977507e-07
5.670350e-05 1.739220e-04 5.753981e-05
1.398061e-04 9.157635e-05 1.601881e-04
2.416080e-05 1.089646e-04 4.749532e-06
-1.712507e-05 2.135747e-04 -3.254344e-05
2.557298e-05 -6.662667e-06 4.374408e-06
3.071593e-05 -2.883960e-06 5.381673e-06
-1.899786e-05 7.882236e-05 -1.153135e-05
-1.055527e-05 4.357865e-05 -3.587830e-06
8.984725e-06 -1.067040e-05 1.699631e-06
9.999417e-06 -1.258558e-05 1.673100e-06
-3.935583e-05 1.494452e-04 -3.764319e-05
-3.350858e-05 1.250390e-04 -1.921696e-05
1.561432e-05 -1.143048e-05 2.685961e-06
3.001587e-05 1.822797e-04 -4.215377e-05
3.749921e-05 1.275081e-04 -1.344343e-05
3.602734e-05 2.690688e-06 6.619954e-06
-4.765342e-06 -8.099004e-06 3.963881e-07
-1.028100e-05 -2.187428e-06 2.654598e-07
5.743831e-06 -8.799916e-07 1.855079e-06
1.685142e-04 3.778259e-07 1.848911e-04
-2.929322e-05 1.449856e-04 -1.964857e-05
-2.699388e-05 1.052951e-04 -5.092482e-06
2.759563e-05 6.390386e-05 -4.208562e-06
2.470180e-05 3.784893e-05 7.426452e-07
2.157596e-05 -8.762608e-06 3.706381e-06
2.353901e-05 1.019754e-04 -1.628001e-05
3.351653e-05 1.254133e-04 -2.011042e-05
-2.019671e-05 8.385235e-05 6.899777e-06
-1.417386e-05 8.510709e-05 9.283315e-06
5.830953e-06 2.531089e-04 -6.721211e-05
1.764874e-05 3.995435e-04 -1.544067e-04
4.662849e-06 1.205972e-04 -2.741727e-05
1.151292e-05 1.119234e-04 4.471249e-06
-1.786277e-05 6.562550e-06 4.676090e-07
-9.702924e-06 9.806778e-05 7.015904e-06
-2.021792e-05 1.144609e-04 -1.927019e-06
1.753122e-05 -1.032683e-05 2.958064e-06
-1.240580e-04 2.711623e-04 -4.013043e-05
3.102034e-04 9.766405e-05 4.668164e-04
-4.772366e-05 2.291897e-04 -7.049455e-05
4.361924e-05 9.300349e-05 9.841202e-07
4.045128e-05 9.513156e-05 -5.153336e-06
-1.497408e-04 5.621867e-04 -1.476712e-04
-2.770381e-05 2.019080e-05 3.935932e-07
-3.844491e-05 1.830767e-04 -4.424275e-05
-4.096215e-05 2.627513e-04 -8.002362e-05
4.400777e-04 7.597039e-04 6.469260e-04
1.338000e-06 8.233743e-06 1.147367e-06
-3.759266e-06 2.219930e-05 -3.594142e-07
2.020457e-05 7.438051e-07 3.702791e-06
-3.466523e-05 4.575084e-04 -1.631615e-04
-3.414353e-07 1.082107e-04 5.085232e-06
3.789596e-05 1.157440e-04 -3.008094e-06
2.314478e-06 2.033013e-04 -6.168974e-05
-3.750846e-05 2.464991e-04 -7.176837e-05
-2.940249e-05 1.384834e-04 -2.978929e-05
3.223710e-05 6.168733e-06 5.718568e-06
3.716359e-05 1.655702e-05 6.643085e-06
1.528061e-04 3.348361e-04 2.156703e-04
-5.672317e-05 2.890717e-04 -9.234875e-05
4.611962e-05 7.042940e-05 4.136845e-06
6.977689e-06 5.860887e-04 -2.316027e-04
-3.980902e-05 3.662740e-04 -1.271628e-04
-5.696549e-05 5.293680e-04 -1.968470e-04
-3.870966e-05 7.346358e-04 -2.837561e-04
-2.633652e-05 4.856937e-04 -1.830484e-04
-8.874148e-05 1.447607e-04 -1.030660e-05
-5.968862e-05 7.899431e-05 -2.365570e-06
-4.129527e-05 4.225290e-05 9.482215e-08
1.392858e-06 9.141620e-04 -3.551774e-04
-6.086701e-08 3.418013e-04 -1.250796e-04
1.435063e-05 1.444312e-04 -8.612221e-06
1.277876e-06 1.895083e-04 -3.128262e-05
2.787546e-05 1.339670e-04 -6.605311e-06
-5.543136e-05 3.507938e-04 -1.200094e-04
-8.015642e-05 7.825862e-04 -2.756347e-04
1.491317e-06 3.768865e-04 -1.336488e-04
2.947672e-05 2.365650e-05 4.081164e-06
3.987037e-05 6.832617e-05 -3.867004e-07
2.713557e-05 -1.531252e-06 4.776280e-06
-1.144731e-05 1.329929e-04 -6.049951e-06
-7.376025e-05 4.849387e-04 -1.605435e-04
-1.819013e-05 3.284941e-04 -1.076019e-04
4.169090e-05 3.096713e-05 6.687538e-06
-2.159982e-05 1.544299e-04 -1.893770e-05
1.955859e-06 9.497033e-04 -3.660294e-04
1.553119e-05 -9.639460e-06 2.679446e-06
2.781896e-05 1.061753e-05 4.716274e-06
2.267496e-05 -6.682914e-06 3.885967e-06
2.217251e-05 2.097189e-04 -4.838102e-05
-6.526865e-06 5.834831e-04 -2.210200e-04
7.014494e-04 2.892264e-04 1.053185e-03
1.287292e-04 -5.923966e-05 1.510351e-04
1.025566e-04 -4.136676e-05 9.037200e-05
-1.954921e-05 -2.757063e-06 7.331478e-08
1.728578e-04 -6.948586e-05 2.688980e-04
-1.523828e-05 -5.626508e-06 -2.245133e-07
-2.936756e-05 5.634382e-06 9.351680e-07
-2.102111e-04 2.527394e-04 1.951929e-05
2.351470e-04 -4.344502e-05 4.185516e-04
-3.503602e-04 5.477599e-04 -3.790383e-05
4.179148e-04 -3.113696e-05 7.495690e-04
9.902020e-04 1.342690e-03 1.331201e-03
-4.700961e-04 1.562715e-03 -5.121170e-04
1.718994e-05 3.560946e-03 -1.200339e-03
-3.916661e-06 -1.311532e-05 -1.406241e-07
7.167827e-07 -1.544416e-05 4.492337e-08