# vtk DataFile Version 2.0
Simplicial Mesh Example
ASCII
DATASET UNSTRUCTURED_GRID
POINTS 9288 double
3.000000e+05 -9.891990e+04 0.000000e+00
3.328749e+05 -8.356390e+04 0.000000e+00
3.236712e+05 -1.028000e+05 -2.481669e+04
3.234412e+05 -7.797130e+04 -2.292780e+04
3.000000e+05 -8.047108e+04 -2.500930e+04
3.330442e+05 -8.129153e+04 -5.000000e+04
3.500484e+05 -6.067306e+04 -2.480784e+04
3.216408e+05 -5.436978e+04 -2.411338e+04
3.000000e+05 -6.175270e+04 -5.000000e+04
3.000000e+05 -9.578803e+04 -5.000000e+04
3.500876e+05 -9.335705e+04 -2.490082e+04
-2.434777e+05 4.000000e+05 -2.599219e+04
-2.260870e+05 4.000000e+05 0.000000e+00
-2.608696e+05 4.000000e+05 0.000000e+00
-2.490625e+05 3.760838e+05 -2.473779e+04
-2.608696e+05 4.000000e+05 -5.000000e+04
-2.774387e+05 3.778182e+05 -2.091093e+04
-2.260870e+05 4.000000e+05 -5.000000e+04
-2.212397e+05 3.763711e+05 -2.515780e+04
-2.403655e+05 3.668276e+05 -5.000000e+04
-2.291712e+05 3.501689e+05 -2.503383e+04
3.000000e+05 -1.333400e+04 -2.594210e+04
3.000000e+05 1.620150e+03 0.000000e+00
3.223155e+05 -2.465755e+04 -2.313145e+04
3.208476e+05 4.362999e+03 -2.503082e+04
3.328345e+05 -1.263243e+04 -5.000000e+04
3.000000e+05 6.317960e+03 -5.000000e+04
3.329349e+05 -1.580352e+04 0.000000e+00
3.461572e+05 8.854694e+03 -2.503927e+04
3.333333e+04 -3.000000e+05 0.000000e+00
4.999999e+04 -3.000000e+05 -2.423892e+04
5.063514e+04 -3.328415e+05 0.000000e+00
3.468405e+04 -3.243713e+05 -2.478056e+04
-4.000000e+05 5.217391e+04 -5.000000e+04
-3.761490e+05 4.671498e+04 -2.533271e+04
-3.670913e+05 6.486035e+04 -5.000000e+04
-3.763451e+05 7.152968e+04 -2.659205e+04
-3.494435e+05 5.906246e+04 -2.495554e+04
-4.000000e+05 5.217391e+04 0.000000e+00
-3.672143e+05 6.907536e+04 0.000000e+00
-4.000000e+05 6.956522e+04 -2.479812e+04
-4.000000e+05 8.695652e+04 0.000000e+00
-3.773092e+05 9.370598e+04 -2.310057e+04
-1.029831e+05 3.668976e+05 -5.000000e+04
-1.285999e+05 3.481523e+05 -2.500799e+04
-9.430320e+04 3.496698e+05 -2.496278e+04
-1.196698e+05 3.754179e+05 -2.520742e+04
-4.000000e+05 1.043478e+05 -2.585127e+04
-4.000000e+05 1.217391e+05 0.000000e+00
-3.670445e+05 1.033589e+05 0.000000e+00
-3.784472e+05 1.216223e+05 -2.525066e+04
-3.671504e+05 9.984722e+04 -5.000000e+04
-4.000000e+05 1.217391e+05 -5.000000e+04
-3.518150e+05 1.239039e+05 -2.498195e+04
-1.854909e+05 3.326000e+05 -5.000000e+04
-1.715782e+05 3.667876e+05 -5.000000e+04
-2.059594e+05 3.668651e+05 -5.000000e+04
-1.949159e+05 3.518119e+05 -2.501748e+04
-3.685344e+05 -4.001205e+04 -5.000000e+04
-3.777980e+05 -4.402723e+04 -2.479253e+04
-3.513514e+05 -1.505841e+04 -2.514033e+04
-3.785245e+05 -1.648428e+04 -2.451245e+04
-4.000000e+05 -1.739130e+04 -5.000000e+04
-4.000000e+05 -3.478260e+04 -2.395986e+04
-3.670480e+05 -3.383533e+04 0.000000e+00
3.000000e+05 -1.143902e+05 -2.548291e+04
-4.000000e+05 -1.739130e+04 0.000000e+00
3.000000e+05 2.345935e+05 0.000000e+00
3.000000e+05 2.185827e+05 -2.423034e+04
3.237695e+05 2.403593e+05 -2.538032e+04
3.234880e+05 2.159433e+05 -2.715449e+04
3.328230e+05 2.204181e+05 0.000000e+00
3.000000e+05 2.018902e+05 0.000000e+00
3.222234e+05 1.912696e+05 -2.760593e+04
3.000000e+05 2.033094e+05 -5.000000e+04
3.329554e+05 1.883818e+05 -5.000000e+04
3.330197e+05 2.213769e+05 -5.000000e+04
3.000000e+05 2.355396e+05 -5.000000e+04
5.217391e+04 -4.000000e+05 -5.000000e+04
4.822279e+04 -3.761835e+05 -2.489046e+04
6.956522e+04 -4.000000e+05 -2.442176e+04
7.467376e+04 -3.751436e+05 -2.486351e+04
6.867436e+04 -3.670376e+05 -5.000000e+04
-3.680676e+05 -3.102454e+05 -5.000000e+04
-4.000000e+05 -2.956522e+05 -5.000000e+04
-4.000000e+05 -3.129450e+05 -2.471081e+04
-3.754651e+05 -2.988011e+05 -2.507448e+04
8.695652e+04 -4.000000e+05 -5.000000e+04
9.729544e+04 -3.774926e+05 -2.509494e+04
5.217391e+04 -4.000000e+05 0.000000e+00
6.874576e+04 -3.672032e+05 0.000000e+00
8.695652e+04 -4.000000e+05 0.000000e+00
5.891567e+04 -3.495321e+05 -2.495272e+04
3.672741e+05 -3.117788e+05 -5.000000e+04
4.000000e+05 -3.304348e+05 -5.000000e+04
4.000000e+05 -3.129826e+05 -2.495879e+04
3.738516e+05 -3.384516e+05 -2.239978e+04
-2.404610e+05 3.670426e+05 0.000000e+00
-1.333333e+05 3.000000e+05 0.000000e+00
-1.499994e+05 3.000000e+05 -2.403026e+04
-1.666667e+05 3.000000e+05 0.000000e+00
-1.519264e+05 3.329197e+05 0.000000e+00
-2.165723e+05 3.000000e+05 -2.560660e+04
-2.333333e+05 3.000000e+05 0.000000e+00
-2.000000e+05 3.000000e+05 0.000000e+00
-2.194203e+05 3.328736e+05 0.000000e+00
-4.000000e+05 -2.956522e+05 0.000000e+00
-3.670276e+05 -3.094409e+05 0.000000e+00
-1.517754e+05 3.326262e+05 -5.000000e+04
-1.180619e+05 3.326449e+05 -5.000000e+04
-1.340593e+05 3.221917e+05 -2.469176e+04
3.509225e+05 -3.669935e+05 0.000000e+00
3.319809e+05 -3.696896e+05 -2.602382e+04
3.448278e+05 -3.336564e+05 -2.377938e+04
4.000000e+05 -3.652174e+05 0.000000e+00
3.682669e+05 -3.723090e+05 -1.961320e+04
3.739662e+05 -2.951367e+05 -2.511275e+04
3.510512e+05 -3.693023e+05 -5.000000e+04
4.000000e+05 -3.470156e+05 -2.573153e+04
3.700520e+05 -3.432737e+05 -5.000000e+04
-3.000000e+05 1.341874e+05 0.000000e+00
-3.240811e+05 1.346462e+05 -2.508813e+04
-3.000000e+05 1.119133e+05 -2.512501e+04
-3.236189e+05 1.094018e+05 -2.287729e+04
-2.752133e+05 -3.666945e+05 0.000000e+00
-2.782548e+05 -4.000000e+05 -2.529878e+04
-2.956522e+05 -4.000000e+05 0.000000e+00
-2.961803e+05 -3.756864e+05 -2.338151e+04
-3.330014e+05 1.110677e+05 -5.000000e+04
-3.499452e+05 9.076670e+04 -2.474735e+04
-3.220639e+05 8.379236e+04 -2.241387e+04
3.328626e+05 1.553867e+05 -5.000000e+04
3.272780e+05 1.280625e+05 -1.788009e+04
3.492109e+05 1.657230e+05 -2.503498e+04
3.244617e+05 1.678413e+05 -2.496162e+04
-3.000000e+05 8.882203e+04 -5.000000e+04
-3.000000e+05 1.240184e+05 -5.000000e+04
3.327422e+05 1.535051e+05 0.000000e+00
3.670646e+05 1.380831e+05 0.000000e+00
3.327972e+05 1.197111e+05 0.000000e+00
3.516785e+05 1.309250e+05 -2.350011e+04
-3.328711e+05 1.188120e+05 0.000000e+00
-2.774301e+05 -3.000000e+05 -2.400592e+04
-2.666667e+05 -3.000000e+05 0.000000e+00
-3.000000e+05 -3.000000e+05 0.000000e+00
-2.887527e+05 -3.313076e+05 0.000000e+00
1.000000e+05 3.000000e+05 -5.000000e+04
1.166667e+05 3.000000e+05 -2.575187e+04
1.180714e+05 3.327255e+05 -5.000000e+04
9.951220e+04 3.220112e+05 -2.500087e+04
1.314601e+05 3.241679e+05 -2.354016e+04
9.364581e+04 3.501202e+05 -2.499158e+04
1.180711e+05 3.327220e+05 0.000000e+00
1.000000e+05 3.000000e+05 0.000000e+00
8.333333e+04 3.000000e+05 -2.488230e+04
6.666667e+04 3.000000e+05 0.000000e+00
8.437333e+04 3.328426e+05 0.000000e+00
-2.193729e+05 -3.327614e+05 0.000000e+00
-1.984489e+05 -3.487084e+05 -2.498389e+04
-2.255637e+05 -3.220916e+05 -2.480774e+04
-1.997150e+05 -3.216678e+05 -2.494973e+04
-2.166083e+05 -3.000000e+05 -2.432669e+04
-2.000000e+05 -3.000000e+05 0.000000e+00
1.181012e+05 -3.327393e+05 -5.000000e+04
1.181198e+05 -3.328215e+05 0.000000e+00
1.267692e+05 -3.500325e+05 -2.501203e+04
1.378469e+05 -3.238640e+05 -2.479444e+04
-2.194361e+05 -3.328434e+05 -5.000000e+04
3.000000e+05 -6.540655e+04 0.000000e+00
3.000000e+05 -4.704409e+04 -2.587389e+04
-2.000000e+05 -3.000000e+05 -5.000000e+04
-1.181761e+05 -3.329602e+05 -5.000000e+04
-1.256518e+05 -3.487565e+05 -2.501145e+04
-1.021642e+05 -3.239975e+05 -2.515764e+04
-1.357323e+05 -3.240118e+05 -2.507957e+04
8.695652e+04 4.000000e+05 -5.000000e+04
6.956522e+04 4.000000e+05 -2.479812e+04
6.873608e+04 3.672727e+05 -5.000000e+04
8.852908e+04 3.783599e+05 -2.511466e+04
-3.000000e+05 -3.000000e+05 -5.000000e+04
-3.334151e+05 -3.298278e+05 -5.000000e+04
-2.898053e+05 -3.326046e+05 -5.000000e+04
-3.144439e+05 -3.130012e+05 -2.491379e+04
6.182965e+04 3.779997e+05 -2.496700e+04
4.000000e+05 1.913043e+05 0.000000e+00
3.671396e+05 2.066670e+05 0.000000e+00
4.000000e+05 2.086957e+05 -2.620830e+04
3.759771e+05 1.891692e+05 -2.534471e+04
8.695652e+04 4.000000e+05 0.000000e+00
6.873267e+04 3.672065e+05 0.000000e+00
-3.435887e+04 -3.670248e+05 0.000000e+00
-3.478260e+04 -4.000000e+05 -2.451623e+04
-5.217391e+04 -4.000000e+05 0.000000e+00
-5.048147e+04 -3.761822e+05 -2.485406e+04
3.436651e+04 3.672768e+05 -5.000000e+04
1.739130e+04 4.000000e+05 -5.000000e+04
1.393202e+04 3.758346e+05 -2.491244e+04
4.003765e+04 3.757249e+05 -2.497885e+04
3.478260e+04 4.000000e+05 -2.504496e+04
5.217391e+04 4.000000e+05 0.000000e+00
3.435410e+04 3.670437e+05 0.000000e+00
2.755712e+04 3.505303e+05 -2.500575e+04
1.739130e+04 4.000000e+05 0.000000e+00
3.670891e+05 1.862933e+03 -5.000000e+04
3.742761e+05 1.677027e+04 -2.493456e+04
3.512355e+05 -2.497308e+04 -2.483192e+04
3.781086e+05 -1.765023e+04 -2.493225e+04
4.000000e+05 -1.739130e+04 -5.000000e+04
4.000000e+05 -1.192804e-02 -2.530346e+04
-3.328715e+05 -1.848068e+05 0.000000e+00
-3.671287e+05 -2.058668e+05 0.000000e+00
-3.671292e+05 -1.714095e+05 0.000000e+00
-3.501225e+05 -1.946877e+05 -2.524820e+04
3.672778e+05 4.586450e+02 0.000000e+00
-4.000000e+05 -2.260870e+05 -5.000000e+04
-4.000000e+05 -2.608696e+05 -5.000000e+04
-3.668871e+05 -2.388668e+05 -5.000000e+04
-4.000000e+05 -2.434777e+05 -2.599219e+04
4.000000e+05 -1.739130e+04 0.000000e+00
-3.000000e+05 1.842938e+04 -5.000000e+04
-3.329296e+05 5.601896e+03 -5.000000e+04
-3.225187e+05 -4.403791e+03 -2.678657e+04
-3.199464e+05 2.467194e+04 -2.281215e+04
-3.480737e+05 2.395723e+04 -2.492980e+04
-3.000000e+05 3.469979e+04 0.000000e+00
-3.328742e+05 5.154336e+04 0.000000e+00
-3.216158e+05 5.471200e+04 -2.444254e+04
-4.000000e+05 3.478260e+04 -2.504496e+04
-3.670456e+05 3.476383e+04 0.000000e+00
-4.000000e+05 1.739130e+04 0.000000e+00
-3.756042e+05 1.458470e+04 -2.490399e+04
-1.000000e+05 3.000000e+05 -5.000000e+04
-8.333335e+04 3.000000e+05 -2.367065e+04
-6.666667e+04 3.000000e+05 -5.000000e+04
-7.584987e+04 3.234585e+05 -2.456040e+04
-5.058931e+04 3.327252e+05 0.000000e+00
-6.107262e+04 3.493397e+05 -2.491598e+04
-4.618311e+04 3.199143e+05 -2.473589e+04
-8.432500e+04 3.326142e+05 -5.000000e+04
-1.035769e+05 3.235841e+05 -2.475576e+04
-6.666667e+04 3.000000e+05 0.000000e+00
-1.000000e+05 3.000000e+05 0.000000e+00
-8.439335e+04 3.328531e+05 0.000000e+00
[...]
CELL_DATA 19270
SCALARS total_strain double 6
LOOKUP_TABLE default
6.211699e-08 3.937773e-09 -2.374136e-08 6.287039e-09 1.622041e-09 2.436073e-09
6.554554e-08 9.212968e-10 -2.108179e-08 4.959972e-09 5.710727e-10 2.738192e-09
6.225430e-08 3.842596e-09 -2.177186e-08 6.360540e-09 8.866687e-10 1.785397e-09
5.902756e-08 5.822285e-09 -2.278932e-08 4.061256e-09 8.380113e-10 1.365150e-09
5.952031e-08 6.123311e-09 -2.192929e-08 2.281350e-09 5.676536e-10 8.104539e-10
-9.593223e-09 1.353268e-07 -1.088030e-07 -3.964152e-08 -3.251892e-08 1.714240e-08
1.804401e-08 7.197868e-08 -7.399179e-08 -3.154510e-08 -1.346775e-08 7.298150e-09
-9.717039e-09 1.397045e-07 -8.078896e-08 -4.404568e-08 -4.705655e-08 2.572674e-08
-3.262439e-08 1.588748e-07 -9.863680e-08 -3.579719e-08 -1.665394e-08 1.779569e-08
-1.041050e-08 1.103989e-07 -7.376226e-08 2.379015e-08 1.747088e-08 9.041814e-09
-2.973983e-09 7.914587e-08 -5.428648e-08 2.051779e-08 2.071125e-08 1.140611e-08
-4.658683e-09 9.240973e-08 -6.134041e-08 1.223320e-08 1.119293e-08 8.985676e-09
-1.250914e-08 9.130454e-08 -6.068175e-08 1.888042e-08 1.424961e-08 7.712123e-09
6.957648e-07 -2.615044e-07 -9.723810e-08 9.153030e-08 -8.691954e-09 -5.329697e-08
-1.772161e-08 1.088453e-07 -7.401662e-08 5.123279e-09 -4.707296e-09 -9.864163e-09
6.232442e-07 -2.290507e-07 -1.692273e-07 1.543576e-08 7.307510e-09 -2.153050e-08
7.197328e-07 -3.184379e-07 -4.840175e-08 -1.791889e-08 3.938946e-08 -3.577080e-08
6.888490e-07 -2.877863e-07 -9.497682e-08 -5.732005e-09 1.138899e-08 -6.289135e-08
6.429861e-07 -2.461747e-07 -1.951525e-07 1.773345e-08 -1.412302e-08 -1.441949e-08
6.666178e-07 -2.734808e-07 -1.683574e-07 1.429633e-08 -9.211754e-09 -2.452241e-08
6.411798e-07 -2.462204e-07 -2.076325e-07 1.810106e-08 -1.583639e-08 7.137409e-09
8.798301e-08 -1.693216e-08 -2.935871e-08 -1.953474e-09 -8.682445e-10 4.747237e-09
8.776728e-08 -1.847676e-08 -3.079956e-08 -3.709605e-09 -2.084673e-09 9.834386e-09
8.907345e-08 -1.827895e-08 -2.836048e-08 -4.241993e-09 -1.143135e-09 7.809001e-09
4.413000e-08 1.920640e-08 -1.993547e-08 2.226283e-09 2.544662e-10 2.263833e-10
5.006552e-08 1.582458e-08 -2.559273e-08 -6.387202e-09 -6.454170e-10 3.043945e-09
4.456916e-08 2.000229e-08 -1.925259e-08 2.028421e-09 1.271494e-10 1.531757e-10
4.338491e-08 1.911873e-08 -1.910041e-08 9.986474e-10 6.740207e-11 1.334364e-10
4.279754e-08 2.045564e-08 -1.993041e-08 2.740217e-09 1.728717e-10 1.723105e-10
4.271496e-08 2.025420e-08 -1.935406e-08 2.604964e-09 2.042668e-10 2.625613e-10
4.196178e-08 1.985332e-08 -1.902951e-08 1.319138e-09 4.041112e-10 -1.782963e-10
8.912890e-08 -1.640578e-08 -3.257134e-08 -4.760420e-09 -7.632943e-10 5.850471e-09
9.378674e-08 -1.788024e-08 -3.002593e-08 -3.226972e-09 -4.791377e-10 4.238578e-09
9.241417e-08 -2.005504e-08 -2.745509e-08 -5.153848e-09 -1.892521e-09 9.581308e-09
-2.087611e-07 5.102346e-07 -3.215051e-09 2.110668e-07 7.934794e-08 2.046754e-08
9.489621e-08 -1.958145e-08 -3.473223e-08 -4.289491e-09 -2.101227e-09 6.801836e-09
9.121869e-08 -1.789436e-08 -3.273031e-08 -3.550244e-09 -2.456808e-10 7.220306e-09
8.681304e-08 -1.770807e-08 -2.973721e-08 -3.984026e-09 -1.330709e-10 5.523088e-09
-7.468814e-08 2.435459e-07 -1.209471e-07 1.480011e-08 1.755285e-08 -2.896454e-09
-5.542072e-08 1.949875e-07 -1.020351e-07 4.487611e-09 9.420377e-09 -9.070991e-10
-6.798312e-08 2.509220e-07 -1.135435e-07 2.295824e-08 2.659348e-08 4.183125e-09
-4.811065e-08 1.977599e-07 -1.038327e-07 1.098343e-08 1.389529e-08 1.130773e-09
-1.362074e-09 5.142853e-08 -5.673344e-08 3.034146e-08 -9.594299e-08 -6.444757e-08
7.965515e-08 6.560556e-08 -8.924633e-08 1.107080e-07 -9.451638e-08 -7.297727e-08
3.128627e-08 5.674191e-08 -4.647861e-08 -2.312120e-08 -1.009684e-08 1.209240e-08
3.383589e-08 4.232466e-08 -4.659897e-08 -2.167203e-08 -5.197559e-09 5.855724e-09
3.907579e-08 5.312349e-08 -5.932382e-08 -3.273500e-08 -1.262724e-08 1.168531e-08
3.246534e-08 5.765297e-08 -5.984420e-08 -3.150266e-08 -3.075626e-09 -2.622834e-09
3.243288e-08 4.609148e-08 -4.834562e-08 -1.989652e-08 -1.112238e-09 4.868317e-09
2.671252e-08 6.394276e-08 -5.695198e-08 -2.200008e-08 -9.764858e-10 8.425733e-09
7.074253e-08 -1.906659e-09 -2.569843e-08 1.034571e-08 9.953255e-10 4.737065e-09
6.390699e-08 3.798200e-09 -2.252628e-08 7.867061e-09 2.998360e-09 3.912946e-09
6.575971e-08 2.784292e-09 -2.261820e-08 5.962400e-09 2.649849e-09 2.869180e-09
2.373794e-07 -2.697450e-09 -1.763645e-07 5.230135e-08 -5.821226e-08 -1.907650e-08
6.941498e-08 -1.656562e-09 -2.346122e-08 7.834930e-09 1.316225e-09 4.877786e-09
6.192423e-08 4.036253e-09 -1.989572e-08 6.315903e-09 2.493196e-09 3.572794e-09
6.873276e-08 -1.664214e-09 -2.148741e-08 7.140352e-09 2.057239e-09 4.328893e-09
6.587830e-08 -1.599790e-09 -2.175613e-08 4.950423e-09 1.882500e-09 2.692077e-09
6.233475e-08 3.617332e-09 -2.396332e-08 7.350575e-09 1.117487e-09 1.941496e-09
6.372130e-08 2.261204e-09 -2.179754e-08 2.562791e-09 7.965479e-10 1.542697e-10
6.451192e-08 2.052363e-09 -2.396490e-08 3.390824e-09 -1.981096e-10 1.824258e-09
6.449696e-08 3.993378e-09 -2.199346e-08 3.330288e-09 1.801370e-09 1.800458e-09
6.648651e-08 2.285825e-09 -2.303427e-08 2.529778e-09 8.123639e-10 1.310024e-10
6.201862e-08 3.500775e-09 -2.193066e-08 1.503731e-09 7.661075e-10 1.062263e-09
6.182200e-08 3.547880e-09 -2.117654e-08 1.238271e-09 -1.072369e-10 8.721856e-10
5.993425e-08 6.578950e-09 -2.275278e-08 4.930713e-09 1.331322e-09 1.769721e-09
6.104280e-08 6.445669e-08 -1.232837e-07 1.082654e-08 -5.625367e-08 -4.957906e-09
6.186652e-08 5.751088e-09 -2.238409e-08 2.517701e-09 1.317818e-09 2.740274e-10
6.494397e-08 3.574931e-10 -2.013754e-08 3.069967e-09 2.673545e-09 8.822815e-10
5.916481e-07 -2.657123e-07 -1.503782e-07 -7.944905e-08 1.190528e-08 -5.509034e-08
4.260456e-07 -1.857174e-07 -9.739614e-08 -6.403471e-08 4.530764e-08 -1.228891e-07
1.814585e-07 4.623627e-09 -1.670421e-07 1.751840e-08 -6.795616e-08 -1.180408e-09
3.737440e-08 2.668268e-08 -2.482348e-08 1.213708e-08 3.584138e-09 4.113620e-09
5.085454e-08 1.448072e-08 -2.449604e-08 -8.235962e-09 -2.228166e-10 1.413393e-09
5.192636e-08 1.379941e-08 -2.457764e-08 -7.556993e-09 1.492517e-10 5.815073e-10
4.971184e-08 1.413374e-08 -2.214863e-08 -3.844179e-09 -2.553305e-10 9.443016e-10
5.106741e-08 1.355645e-08 -2.211050e-08 -3.858541e-09 3.073713e-10 6.644570e-11
1.657241e-07 -5.344932e-08 -5.719183e-08 7.080830e-08 -9.434870e-08 -1.247065e-07
1.645955e-07 -3.908790e-08 -9.063460e-08 6.782078e-08 -1.192114e-07 -1.079651e-07
3.146762e-07 -9.618636e-08 -1.365883e-07 9.056208e-08 -6.313074e-08 -5.898974e-08
2.165762e-07 -1.177420e-08 -1.559266e-07 8.120615e-08 -6.323373e-08 -2.128585e-08
2.565160e-07 -9.608103e-08 -1.066942e-07 1.005731e-07 -7.753330e-08 -9.680218e-08
2.446627e-07 -1.582321e-07 -8.630058e-08 1.299570e-07 -7.733774e-08 -1.033429e-07
2.307478e-07 -5.914266e-08 -1.577158e-07 8.814397e-08 -7.632719e-08 -1.409606e-08
7.013091e-08 -2.626321e-09 -2.500298e-08 -1.276245e-08 -3.743918e-09 7.112124e-09
-7.382240e-09 9.942286e-08 -7.845198e-08 1.329449e-08 -1.344965e-08 -9.770401e-09
-7.911863e-09 9.995664e-08 -6.664221e-08 1.442829e-08 -1.732808e-08 -1.107343e-08
-1.098068e-08 9.886132e-08 -7.709472e-08 8.159049e-09 -9.387007e-09 -9.133687e-09
-5.606920e-09 9.370846e-08 -6.618871e-08 1.358846e-08 -2.262980e-08 -8.325786e-09
7.332423e-08 -5.293492e-09 -2.142327e-08 -7.035114e-09 -2.504209e-09 4.506654e-09
-6.027735e-09 9.380168e-08 -8.364651e-08 1.312683e-08 -1.913682e-08 -5.584906e-09
-5.968406e-09 9.586774e-08 -7.126041e-08 9.686270e-09 -1.247320e-08 -4.344114e-09
1.315833e-09 9.703589e-08 -7.400955e-08 6.471304e-09 -1.284762e-08 -5.431949e-09
-1.230008e-08 8.655926e-08 -6.686807e-08 6.426969e-09 -1.484268e-08 -9.892118e-09
-1.193309e-08 7.262496e-08 -4.904123e-08 9.085731e-11 -2.414368e-08 -7.473064e-09
-9.079813e-09 8.459620e-08 -6.447459e-08 7.639814e-09 -2.657609e-08 -9.716587e-09
-1.518186e-08 7.996960e-08 -5.466747e-08 5.194450e-09 -1.436493e-08 -8.356456e-09
9.982012e-08 -1.226698e-08 -5.019303e-08 2.519906e-08 -1.394749e-09 4.706987e-09
8.492635e-08 -5.652838e-09 -3.849381e-08 1.790927e-08 -1.208591e-09 2.216275e-09
1.037849e-07 -1.338981e-08 -4.689511e-08 2.305375e-08 -2.374782e-09 8.621647e-09
8.760434e-08 -8.711843e-09 -4.075800e-08 1.580742e-08 2.922230e-09 4.005276e-09
-5.034555e-08 2.006472e-07 -1.374546e-07 4.530405e-08 -2.387955e-08 -1.247954e-08
-4.034365e-08 1.810829e-07 -1.162659e-07 2.411486e-08 -7.977151e-09 -7.847560e-09
-4.563467e-08 1.892170e-07 -1.242431e-07 2.742184e-08 -1.083100e-08 -1.289214e-09
-5.603727e-08 2.157997e-07 -1.329470e-07 3.917738e-08 -1.139560e-08 -1.065716e-08
5.628534e-08 9.551890e-09 -2.040141e-08 -1.854319e-09 -8.116414e-10 -3.881844e-11
-8.463612e-09 7.795003e-08 -4.651248e-08 -8.905169e-09 1.435897e-08 -3.319144e-09
-1.425341e-08 7.294323e-08 -4.415428e-08 -4.461240e-09 9.370694e-09 -4.824915e-09
-1.107638e-08 7.853091e-08 -4.346268e-08 -3.021389e-09 4.254030e-09 -2.613101e-09
-1.189658e-08 7.759580e-08 -4.483394e-08 -4.865831e-09 6.312699e-09 -1.536985e-09
-8.613710e-09 7.702219e-08 -5.059003e-08 -2.356950e-09 3.407543e-09 -9.882501e-10
-1.137486e-08 7.430829e-08 -4.419688e-08 -4.542749e-09 1.371791e-08 -4.921998e-09
-8.407383e-09 7.911425e-08 -4.486980e-08 -3.216282e-09 7.617632e-09 -2.082273e-09
3.104042e-08 3.810933e-08 -3.256556e-08 1.476401e-08 2.065701e-09 4.912754e-09
5.183759e-08 1.117099e-08 -1.961914e-08 -1.482506e-09 -6.328739e-10 2.339064e-10
3.030778e-08 3.463232e-08 -2.873862e-08 1.019763e-08 2.832240e-09 2.048208e-09
3.022696e-08 3.354932e-08 -2.600080e-08 9.694592e-09 1.372844e-09 5.223708e-10
3.619692e-08 2.947402e-08 -2.800014e-08 1.241157e-08 9.866134e-10 1.999702e-09
-3.602522e-08 1.409702e-07 -9.249450e-08 -2.433823e-08 1.468761e-08 -7.193743e-09
-3.831721e-08 1.519427e-07 -8.326369e-08 -1.953251e-08 1.015426e-08 -4.122842e-09
-2.939291e-08 1.281785e-07 -6.943929e-08 -1.392413e-08 7.189124e-09 -5.262321e-09
-3.452901e-08 1.316249e-07 -7.767294e-08 -1.429590e-08 7.002626e-09 1.290126e-09
-3.964892e-08 1.498646e-07 -8.770890e-08 -2.124012e-08 6.982695e-09 -6.897053e-09
2.585649e-07 5.477005e-08 -8.157147e-08 -2.287179e-07 1.531309e-07 -1.200278e-07
1.800986e-07 -6.784288e-08 -2.438478e-08 -8.023253e-08 1.228483e-07 -1.002612e-07
2.360286e-07 -5.110126e-08 -5.228360e-08 -1.111917e-07 7.582921e-08 1.222503e-09
2.412664e-07 -1.903996e-10 -1.392303e-07 -1.062764e-07 8.137017e-08 -8.710591e-08
-1.518513e-08 6.667280e-08 -3.574564e-08 -6.449615e-10 6.989152e-09 8.955885e-10
2.891735e-07 -4.585032e-08 -1.231881e-07 -1.957670e-07 8.841379e-08 -9.825081e-08
2.350344e-07 5.858228e-10 -1.371903e-07 -1.136841e-07 9.183214e-08 -8.355415e-08
2.256043e-07 -9.587979e-08 -1.187156e-07 -5.959047e-08 5.768490e-08 -3.611028e-08
6.190988e-08 1.070034e-07 -1.134325e-07 -5.858181e-08 2.752569e-08 -1.700950e-08
3.273857e-08 9.456954e-08 -1.049495e-07 -3.661382e-08 3.065086e-08 -1.307784e-08
3.242806e-08 9.309900e-08 -9.291716e-08 -3.579564e-08 2.444871e-08 -7.276152e-09
3.871530e-08 1.121010e-07 -1.272926e-07 -6.769272e-08 1.171505e-08 -3.378061e-09
6.191961e-08 1.072856e-07 -1.287273e-07 -5.879175e-08 1.645201e-08 -6.576935e-10
7.519944e-08 2.513911e-08 -6.584369e-08 -5.502495e-08 -1.081562e-08 1.847662e-09
8.496975e-08 2.469527e-08 -8.764108e-08 -7.903125e-08 -9.554878e-09 1.602191e-08
6.876330e-08 2.404754e-08 -5.716059e-08 -5.774169e-08 -1.453107e-08 1.143412e-08
8.464032e-08 4.417622e-08 -7.413764e-08 -7.565131e-08 -1.795163e-08 1.876943e-08
2.662552e-07 -6.542214e-08 -1.081160e-07 5.600438e-08 8.170622e-09 4.377757e-08
2.791844e-07 -1.047866e-07 -1.027303e-07 5.498581e-08 3.478803e-09 5.805780e-08
3.027730e-07 -7.925477e-08 -1.054199e-07 2.690515e-08 1.966994e-09 4.734793e-08
2.825849e-07 -9.098619e-08 -1.047660e-07 4.807726e-08 -1.916470e-09 6.026861e-08
1.074204e-07 5.150124e-09 -6.364594e-08 5.584179e-08 7.246027e-09 2.056892e-08
1.315604e-07 -3.198640e-09 -8.946820e-08 8.233531e-08 1.269377e-08 2.793728e-08
1.391094e-07 -7.448551e-09 -9.116997e-08 7.752000e-08 -2.426063e-10 1.038803e-08
1.112532e-07 -8.618615e-10 -6.899794e-08 5.538435e-08 1.386882e-10 1.032549e-08
1.053983e-07 4.944407e-10 -6.388671e-08 5.850222e-08 3.551624e-09 1.144230e-08
1.182503e-07 6.883898e-09 -8.501041e-08 7.190347e-08 4.143608e-09 1.380465e-08
4.018533e-07 -1.118475e-07 5.593866e-07 -5.496859e-07 7.672973e-08 -1.041874e-07
4.168982e-07 -4.730515e-07 1.077618e-06 -5.179098e-07 3.884663e-08 -1.306069e-07
4.019027e-07 -4.226394e-07 4.781536e-07 -5.445681e-07 -1.761004e-08 -1.393871e-09
4.409119e-07 -4.737316e-07 8.023610e-07 -5.264096e-07 1.301537e-07 -2.387556e-07
6.853459e-08 1.932980e-09 -2.828967e-08 -1.101058e-08 -1.581801e-09 1.003114e-09
3.826637e-08 2.647422e-08 -2.182239e-08 1.184366e-08 3.731242e-09 3.895049e-09
7.680556e-08 -1.563531e-09 -2.868658e-08 -1.031747e-08 -1.083233e-09 2.612056e-09
6.791838e-10 3.579311e-09 -5.650779e-08 -8.230362e-10 -8.423807e-08 -2.384663e-09
7.139729e-08 -2.142890e-09 -2.576682e-08 -6.627927e-09 1.164525e-10 2.724038e-09
7.157540e-08 -2.324301e-09 -2.876485e-08 -7.267855e-09 -8.385887e-10 1.578520e-09
8.708474e-08 -1.726462e-08 -2.867695e-08 3.809386e-09 5.140030e-10 5.514958e-09
9.397239e-08 -1.925995e-08 -2.807262e-08 3.436138e-09 1.289384e-09 8.450820e-09
8.893323e-08 -1.793137e-08 -2.716455e-08 1.893676e-09 3.811679e-10 2.076343e-09
8.907092e-08 -1.860039e-08 -2.410257e-08 1.206296e-09 -3.392679e-10 5.491282e-09
8.700722e-08 -1.713491e-08 -2.878596e-08 2.935245e-09 -2.543548e-11 5.403269e-09
3.341036e-08 2.737246e-08 -2.328790e-08 1.171091e-08 5.521776e-09 6.591923e-09
8.614877e-08 -1.630990e-08 -2.310153e-08 2.278187e-09 3.078254e-10 5.222280e-09
3.542140e-08 3.097157e-08 -2.904769e-08 1.317639e-08 1.627536e-09 3.125990e-09
3.302838e-08 3.460119e-08 -3.359779e-08 1.619463e-08 -3.039201e-10 1.564331e-09
3.390866e-08 2.732144e-08 -2.271324e-08 6.366941e-09 8.393415e-10 7.983431e-10
3.882466e-08 2.767778e-08 -2.562594e-08 7.809134e-09 1.536493e-09 1.477688e-09
3.382556e-08 2.747170e-08 -2.408637e-08 6.432704e-09 2.159674e-10 1.191079e-09
3.497470e-08 2.925230e-08 -2.628108e-08 8.087617e-09 9.459411e-10 8.846186e-10
-2.112050e-08 9.521025e-08 -5.539539e-08 -5.479772e-09 6.114193e-09 -7.268873e-09
-2.374855e-08 8.394311e-08 -4.099491e-08 2.344730e-09 5.076597e-09 -1.052381e-08
-2.154168e-08 8.538210e-08 -4.770044e-08 -3.375962e-09 2.220488e-09 -6.954455e-09
-1.925272e-08 9.647602e-08 -6.140661e-08 -1.094232e-08 1.139629e-08 -5.387526e-09
-2.172824e-08 1.014281e-07 -5.725667e-08 -5.652760e-09 6.030403e-09 -8.081747e-09
-2.881849e-08 4.343250e-08 -4.008511e-08 -6.930637e-09 -5.506290e-08 -2.940551e-08
-2.147451e-08 9.304394e-08 -5.176278e-08 -5.871509e-09 1.210627e-09 -6.743207e-09
-2.082521e-08 7.331036e-08 -4.118342e-08 -3.909201e-09 1.473838e-08 -9.779496e-09
-2.005032e-08 9.041392e-08 -4.344958e-08 -7.582932e-09 2.079647e-08 -1.083036e-08
3.007227e-08 3.319716e-07 -1.301026e-07 3.460603e-07 7.543399e-10 -1.747965e-08
4.470669e-08 2.998786e-07 -9.802380e-08 3.489478e-07 -8.228533e-08 -5.982713e-08
-7.502682e-08 3.388517e-07 7.838354e-08 4.220103e-07 -8.469670e-08 -4.269435e-08
6.607274e-08 -1.663922e-09 -2.511180e-08 1.228265e-08 4.991711e-09 8.820460e-09
9.376343e-08 -2.060902e-08 -3.710893e-08 -6.215030e-09 -1.024883e-09 1.337087e-08
1.015458e-07 -2.286013e-08 -4.014041e-08 -4.847554e-09 8.705182e-10 1.577168e-08
-2.794861e-08 1.218203e-07 -7.001463e-08 -1.252775e-08 3.035217e-09 -2.802416e-09
9.980080e-08 -2.122941e-08 -3.672804e-08 -2.660309e-09 5.770482e-10 9.818320e-09
1.077538e-07 -2.393976e-08 -4.227914e-08 -4.067112e-09 -3.746963e-09 8.664373e-09
9.901772e-08 -2.069629e-08 -3.277352e-08 -3.858946e-09 -1.158452e-09 1.181356e-08
4.441343e-07 -1.742863e-07 -1.725658e-07 -9.765008e-08 3.152929e-08 3.724160e-09
-5.395207e-09 1.502499e-07 -1.186293e-07 6.284526e-08 -3.255759e-08 -2.793410e-08
5.940206e-07 -2.035965e-07 -2.131553e-07 -1.028448e-07 2.200388e-08 -6.796382e-09
6.015177e-07 -2.438037e-07 -1.589213e-07 -9.616688e-08 2.114382e-08 -2.826163e-08
5.510353e-07 -2.315850e-07 -9.072050e-08 -1.239829e-07 1.595291e-08 -1.241481e-08
5.332481e-07 -2.429628e-07 -4.955407e-08 -1.907175e-07 -5.705440e-08 -4.262239e-09
6.609671e-07 -2.554909e-07 -9.668220e-08 -1.061495e-07 1.079552e-08 -5.308972e-08
5.318538e-07 -1.645420e-07 -1.703213e-07 -2.206979e-07 3.254585e-08 1.842743e-08
5.146101e-07 -1.679975e-07 -9.397814e-08 -1.524972e-07 2.955661e-08 -9.532207e-08
-1.265827e-06 -1.775357e-06 6.965782e-06 4.102743e-07 8.031847e-07 9.002249e-07
-1.984530e-06 -1.368782e-06 6.621357e-06 6.676337e-08 1.042072e-06 2.551890e-07
-2.198750e-06 -1.776944e-06 5.910377e-06 3.711218e-07 4.266691e-07 5.792825e-07
-2.384216e-06 -1.549933e-06 6.654686e-06 4.739747e-07 9.717702e-07 5.900194e-07
4.759400e-07 -1.636537e-07 -1.549033e-07 8.443600e-08 -4.244334e-08 -9.760058e-08
3.208943e-07 -1.217972e-07 -6.747285e-08 3.443907e-08 -2.442493e-08 -3.713308e-08
2.301531e-07 -1.494741e-07 -4.607261e-08 5.193144e-08 -7.959342e-08 -5.652623e-08
3.208939e-07 -1.230540e-07 -1.375287e-07 3.584555e-08 -3.507383e-08 -3.085029e-08
-2.462458e-08 1.039345e-07 -6.006390e-08 -9.025173e-09 7.667071e-09 -4.916060e-09
6.260354e-08 2.875451e-09 -2.408664e-08 -9.206948e-09 -8.129775e-10 4.950409e-09
5.568163e-08 9.765556e-09 -2.013522e-08 -3.084949e-09 -1.239245e-09 1.365728e-09
5.836982e-08 7.059194e-09 -2.030326e-08 -4.314394e-09 -7.417029e-10 2.185092e-09
5.682047e-08 1.006524e-08 -2.016389e-08 -3.711557e-09 -8.430545e-10 7.827124e-10
3.692830e-07 -2.065270e-07 -7.830275e-08 1.222363e-07 -6.346950e-08 -1.196001e-07
3.816502e-07 -1.575135e-07 -1.407429e-07 5.166291e-08 -5.181376e-08 -4.145565e-08
4.203890e-07 -1.725933e-07 -8.539029e-08 1.456724e-07 -1.631892e-08 -4.161667e-08
-2.393300e-08 1.589169e-07 -1.109265e-07 -3.749658e-08 -1.001297e-08 -2.333365e-09
-1.314804e-08 1.483484e-07 -1.070005e-07 -3.724087e-08 -2.480911e-09 6.371970e-09
-2.417193e-08 1.943060e-07 -1.194772e-07 -5.711630e-08 -1.661338e-08 9.282007e-09
-3.035435e-08 1.374330e-07 -1.076426e-07 -3.792821e-08 -3.439050e-08 1.228302e-08
-3.513707e-08 1.726698e-07 -1.211500e-07 -7.209724e-08 -3.397041e-08 1.841824e-08
-1.387142e-08 1.722305e-07 -1.074359e-07 -7.509341e-08 -3.802722e-08 1.708192e-08
-1.389333e-08 6.964758e-08 -4.564109e-08 3.705653e-08 -9.083761e-08 -3.461677e-08
6.233488e-08 4.267466e-09 -2.251639e-08 -4.650847e-09 -9.021618e-10 1.207698e-09
-3.088222e-10 1.082587e-07 -7.993308e-08 1.899269e-08 -1.525027e-08 -7.250351e-09
-1.031685e-08 9.975498e-08 -7.412176e-08 6.107262e-09 -8.535723e-09 -7.335684e-10
-1.342767e-08 8.400375e-08 -5.880306e-08 8.124494e-09 -1.479590e-08 -9.919944e-09
-1.373581e-08 9.132557e-08 -6.836452e-08 6.392719e-09 -2.418482e-08 -1.497257e-08
-3.555890e-09 1.048699e-07 -8.767981e-08 1.976716e-08 -1.908090e-08 -1.245857e-08
-2.451258e-09 1.013678e-07 -8.181886e-08 1.919224e-08 -3.572946e-08 -2.528745e-08
-1.573605e-08 9.706438e-08 -6.613775e-08 1.097469e-08 -2.786384e-08 -1.877342e-08
7.657262e-09 5.221393e-08 -2.495959e-08 1.001190e-08 9.691639e-09 8.159770e-09
6.455604e-09 4.858641e-08 -2.521892e-08 5.188764e-09 4.407361e-09 5.604786e-09
-2.392944e-08 7.532345e-08 -2.793714e-08 -4.634742e-09 2.006482e-08 -1.100886e-08
2.443286e-09 5.638526e-08 -3.654887e-08 8.989172e-09 1.244246e-08 1.145401e-08
7.465235e-09 5.383105e-08 -3.250440e-08 1.296805e-09 2.708385e-09 7.687286e-09
3.006733e-09 4.763235e-08 -2.707602e-08 3.369475e-09 5.767794e-09 8.239985e-09
-1.186417e-09 5.566770e-08 -3.360396e-08 2.318716e-09 7.266252e-09 1.183068e-08
8.237517e-09 6.128550e-08 -3.247879e-08 5.877680e-09 6.329270e-09 8.030769e-09
1.803288e-07 -4.531012e-08 -1.019680e-07 6.722207e-08 7.046573e-09 2.442543e-08
2.299015e-07 -4.207567e-08 -1.035899e-07 8.018600e-08 8.598972e-09 3.444046e-08
2.107893e-07 -5.996354e-08 -1.063433e-07 4.798499e-08 3.324778e-09 1.928852e-08
4.994545e-08 -7.278990e-08 -7.595978e-08 -2.052142e-09 -3.561440e-09 2.992931e-08
1.956100e-07 -4.264835e-08 -9.542409e-08 5.609280e-08 1.178022e-08 1.228694e-08
5.096965e-08 1.209921e-08 -2.039941e-08 -1.586224e-09 -2.888281e-10 1.490867e-10