# vtk DataFile Version 2.0
Simplicial Mesh Example
ASCII
DATASET UNSTRUCTURED_GRID
POINTS 65 double
-1.493375e+05 -8.775002e+04 -3.000000e+04
-1.427082e+05 -8.479848e+04 -3.000000e+04
-1.360790e+05 -8.184694e+04 -3.000000e+04
-1.547800e+05 -7.832338e+04 -2.375000e+04
-1.602225e+05 -6.889674e+04 -1.750000e+04
-1.481507e+05 -7.537184e+04 -2.375000e+04
-1.535932e+05 -6.594520e+04 -1.750000e+04
-1.469639e+05 -6.299366e+04 -1.750000e+04
-1.415215e+05 -7.242030e+04 -2.375000e+04
-6.978636e+04 -5.233156e+04 -3.000000e+04
-7.522883e+04 -4.290492e+04 -2.375000e+04
-8.067130e+04 -3.347828e+04 -1.750000e+04
-7.641562e+04 -5.528310e+04 -3.000000e+04
-8.304488e+04 -5.823464e+04 -3.000000e+04
-8.185809e+04 -4.585646e+04 -2.375000e+04
-1.656649e+05 -5.947010e+04 -1.125000e+04
-1.711074e+05 -5.004346e+04 -5.000000e+03
-1.590357e+05 -5.651856e+04 -1.125000e+04
-1.644781e+05 -4.709192e+04 -5.000000e+03
-1.578489e+05 -4.414038e+04 -5.000000e+03
-8.611378e+04 -2.405164e+04 -1.125000e+04
-9.155625e+04 -1.462500e+04 -5.000000e+03
-9.392983e+04 -3.938136e+04 -1.750000e+04
-9.274304e+04 -2.700318e+04 -1.125000e+04
-8.730057e+04 -3.642982e+04 -1.750000e+04
-1.048148e+05 -2.052808e+04 -5.000000e+03
-9.818551e+04 -1.757654e+04 -5.000000e+03
-9.937230e+04 -2.995472e+04 -1.125000e+04
-1.294497e+05 -7.889540e+04 -3.000000e+04
-1.228205e+05 -7.594386e+04 -3.000000e+04
-1.282629e+05 -6.651722e+04 -2.375000e+04
-1.348922e+05 -6.946876e+04 -2.375000e+04
-1.337054e+05 -5.709058e+04 -1.750000e+04
-1.216337e+05 -6.356569e+04 -2.375000e+04
-1.161912e+05 -7.299233e+04 -3.000000e+04
-1.204469e+05 -5.118751e+04 -1.750000e+04
-1.150044e+05 -6.061415e+04 -2.375000e+04
-1.095619e+05 -7.004079e+04 -3.000000e+04
-1.270761e+05 -5.413905e+04 -1.750000e+04
-8.967414e+04 -6.118618e+04 -3.000000e+04
-9.630341e+04 -6.413771e+04 -3.000000e+04
-9.511662e+04 -5.175954e+04 -2.375000e+04
-8.848736e+04 -4.880800e+04 -2.375000e+04
-1.071884e+05 -4.528443e+04 -1.750000e+04
-1.005591e+05 -4.233290e+04 -1.750000e+04
-1.017459e+05 -5.471107e+04 -2.375000e+04
-1.083751e+05 -5.766261e+04 -2.375000e+04
-1.029327e+05 -6.708925e+04 -3.000000e+04
-1.180733e+05 -2.643115e+04 -5.000000e+03
-1.114440e+05 -2.347962e+04 -5.000000e+03
-1.126308e+05 -3.585779e+04 -1.125000e+04
-1.060016e+05 -3.290626e+04 -1.125000e+04
-1.192601e+05 -3.880933e+04 -1.125000e+04
-1.138176e+05 -4.823597e+04 -1.750000e+04
-1.258894e+05 -4.176087e+04 -1.125000e+04
-1.313318e+05 -3.233423e+04 -5.000000e+03
-1.247026e+05 -2.938269e+04 -5.000000e+03
-1.524064e+05 -5.356702e+04 -1.125000e+04
-1.457771e+05 -5.061548e+04 -1.125000e+04
-1.512196e+05 -4.118884e+04 -5.000000e+03
-1.445903e+05 -3.823730e+04 -5.000000e+03
-1.403347e+05 -6.004212e+04 -1.750000e+04
-1.391479e+05 -4.766394e+04 -1.125000e+04
-1.325186e+05 -4.471241e+04 -1.125000e+04
-1.379611e+05 -3.528577e+04 -5.000000e+03
CELLS 96 384
3  3 0 5
3  4 3 6
3  6 5 7
3  5 6 3
3  1 2 8
3  0 1 5
3  5 8 7
3  1 8 5
3  14 13 12
3  11 14 10
3  10 12 9
3  12 10 14
3  15 4 17
3  16 15 18
3  18 17 19
3  17 18 15
3  23 22 24
3  21 23 20
3  20 24 11
3  24 20 23
3  26 25 27
3  21 26 23
3  23 27 22
3  26 27 23
3  28 29 30
3  2 28 31
3  31 30 32
3  28 30 31
3  33 29 34
3  35 33 36
3  36 34 37
3  34 36 33
3  30 29 33
3  32 30 38
3  38 33 35
3  33 38 30
3  41 40 39
3  22 41 42
3  42 39 13
3  39 42 41
3  44 43 45
3  22 44 41
3  41 45 40
3  44 45 41
3  46 37 47
3  43 46 45
3  45 47 40
3  47 45 46
3  49 48 50
3  25 49 51
3  51 50 43
3  49 50 51
3  52 35 53
3  48 52 50
3  50 53 43
3  53 50 52
3  54 35 52
3  55 54 56
3  56 52 48
3  52 56 54
3  57 7 58
3  19 57 59
3  59 58 60
3  58 59 57
3  61 32 62
3  7 61 58
3  58 62 60
3  61 62 58
3  62 32 63
3  60 62 64
3  64 63 55
3  63 64 62
3  31 32 61
3  2 31 8
3  8 61 7
3  61 8 31
3  7 57 6
3  57 19 17
3  6 17 4
3  6 57 17
3  35 54 38
3  54 55 63
3  38 63 32
3  38 54 63
3  14 11 24
3  13 14 42
3  42 24 22
3  24 42 14
3  51 43 44
3  25 51 27
3  27 44 22
3  44 27 51
3  37 46 36
3  46 43 53
3  36 53 35
3  46 53 36
CELL_TYPES 96
5
5
5
5
5
5
5
5
5
5
5
5
5
5
5
5
5
5
5
5
5
5
5
5
5
5
5
5
5
5
5
5
5
5
5
5
5
5
5
5
5
5
5
5
5
5
5
5
5
5
5
5
5
5
5
5
5
5
5
5
5
5
5
5
5
5
5
5
5
5
5
5
5
5
5
5
5
5
5
5
5
5
5
5
5
5
5
5
5
5
5
5
5
5
5
5
POINT_DATA 65
VECTORS slip double
0.000000e+00 0.000000e+00 0.000000e+00
0.000000e+00 0.000000e+00 0.000000e+00
0.000000e+00 0.000000e+00 0.000000e+00
0.000000e+00 0.000000e+00 0.000000e+00
0.000000e+00 0.000000e+00 0.000000e+00
0.000000e+00 0.000000e+00 0.000000e+00
0.000000e+00 0.000000e+00 0.000000e+00
0.000000e+00 0.000000e+00 0.000000e+00
0.000000e+00 0.000000e+00 0.000000e+00
0.000000e+00 0.000000e+00 0.000000e+00
0.000000e+00 0.000000e+00 0.000000e+00
0.000000e+00 0.000000e+00 0.000000e+00
0.000000e+00 0.000000e+00 0.000000e+00
0.000000e+00 0.000000e+00 0.000000e+00
0.000000e+00 0.000000e+00 0.000000e+00
0.000000e+00 0.000000e+00 0.000000e+00
0.000000e+00 0.000000e+00 0.000000e+00
-1.443010e+00 -2.030550e+00 -1.084202e-16
0.000000e+00 0.000000e+00 0.000000e+00
0.000000e+00 0.000000e+00 0.000000e+00
0.000000e+00 0.000000e+00 0.000000e+00
0.000000e+00 0.000000e+00 0.000000e+00
0.000000e+00 0.000000e+00 0.000000e+00
-1.479349e+00 -2.034318e+00 -1.084202e-16
0.000000e+00 0.000000e+00 0.000000e+00
0.000000e+00 0.000000e+00 0.000000e+00
0.000000e+00 0.000000e+00 0.000000e+00
-1.893024e+00 -2.408328e+00 0.000000e+00
0.000000e+00 0.000000e+00 0.000000e+00
0.000000e+00 0.000000e+00 0.000000e+00
0.000000e+00 0.000000e+00 0.000000e+00
0.000000e+00 0.000000e+00 0.000000e+00
0.000000e+00 0.000000e+00 0.000000e+00
0.000000e+00 0.000000e+00 0.000000e+00
0.000000e+00 0.000000e+00 0.000000e+00
0.000000e+00 0.000000e+00 0.000000e+00
0.000000e+00 0.000000e+00 0.000000e+00
0.000000e+00 0.000000e+00 0.000000e+00
0.000000e+00 0.000000e+00 0.000000e+00
0.000000e+00 0.000000e+00 0.000000e+00
0.000000e+00 0.000000e+00 0.000000e+00
0.000000e+00 0.000000e+00 0.000000e+00
0.000000e+00 0.000000e+00 0.000000e+00
0.000000e+00 0.000000e+00 0.000000e+00
0.000000e+00 0.000000e+00 0.000000e+00
0.000000e+00 0.000000e+00 0.000000e+00
0.000000e+00 0.000000e+00 0.000000e+00
0.000000e+00 0.000000e+00 0.000000e+00
0.000000e+00 0.000000e+00 0.000000e+00
0.000000e+00 0.000000e+00 0.000000e+00
-2.006098e+00 -2.476797e+00 0.000000e+00
-2.026639e+00 -2.522036e+00 0.000000e+00
-2.170270e+00 -2.765834e+00 0.000000e+00
0.000000e+00 0.000000e+00 0.000000e+00
-2.163797e+00 -2.655803e+00 0.000000e+00
0.000000e+00 0.000000e+00 0.000000e+00
0.000000e+00 0.000000e+00 0.000000e+00
-1.887553e+00 -2.474465e+00 0.000000e+00
-2.055542e+00 -2.575743e+00 0.000000e+00
0.000000e+00 0.000000e+00 0.000000e+00
0.000000e+00 0.000000e+00 0.000000e+00
0.000000e+00 0.000000e+00 0.000000e+00
-2.110301e+00 -2.644452e+00 0.000000e+00
-2.191034e+00 -2.742662e+00 0.000000e+00
0.000000e+00 0.000000e+00 0.000000e+00
VECTORS traction double
0.000000e+00 0.000000e+00 0.000000e+00
0.000000e+00 0.000000e+00 0.000000e+00
0.000000e+00 0.000000e+00 0.000000e+00
0.000000e+00 0.000000e+00 0.000000e+00
0.000000e+00 0.000000e+00 0.000000e+00
-3.719981e+07 -5.528251e+07 -6.089012e+08
-3.819994e+07 -5.784314e+07 -4.402050e+08
-3.878452e+07 -5.897993e+07 -4.403262e+08
-3.731087e+07 -5.534884e+07 -6.089874e+08
0.000000e+00 0.000000e+00 0.000000e+00
0.000000e+00 0.000000e+00 0.000000e+00
0.000000e+00 0.000000e+00 0.000000e+00
0.000000e+00 0.000000e+00 0.000000e+00
0.000000e+00 0.000000e+00 0.000000e+00
-3.765905e+07 -5.519786e+07 -6.092237e+08
0.000000e+00 0.000000e+00 0.000000e+00
0.000000e+00 0.000000e+00 0.000000e+00
-3.033054e+07 -4.506971e+07 -2.716257e+08
0.000000e+00 0.000000e+00 0.000000e+00
0.000000e+00 0.000000e+00 0.000000e+00
0.000000e+00 0.000000e+00 0.000000e+00
0.000000e+00 0.000000e+00 0.000000e+00
-3.866507e+07 -5.807002e+07 -4.410025e+08
-3.030949e+07 -4.507038e+07 -2.715697e+08
-3.763119e+07 -5.658825e+07 -4.406627e+08
0.000000e+00 0.000000e+00 0.000000e+00
0.000000e+00 0.000000e+00 0.000000e+00
-3.058621e+07 -4.492830e+07 -2.717567e+08
0.000000e+00 0.000000e+00 0.000000e+00
0.000000e+00 0.000000e+00 0.000000e+00
-3.741128e+07 -5.548494e+07 -6.090859e+08
-3.731377e+07 -5.544975e+07 -6.090179e+08
-3.904665e+07 -5.927802e+07 -4.402066e+08
-3.745161e+07 -5.549468e+07 -6.091647e+08
0.000000e+00 0.000000e+00 0.000000e+00
-3.896356e+07 -5.866006e+07 -4.403120e+08
-3.741879e+07 -5.544932e+07 -6.092526e+08
0.000000e+00 0.000000e+00 0.000000e+00
-3.895424e+07 -5.903359e+07 -4.403791e+08
0.000000e+00 0.000000e+00 0.000000e+00
0.000000e+00 0.000000e+00 0.000000e+00
-3.768798e+07 -5.534616e+07 -6.093477e+08
-3.772463e+07 -5.533489e+07 -6.093074e+08
-3.952532e+07 -5.997999e+07 -4.411618e+08
-3.908160e+07 -5.866926e+07 -4.407956e+08
-3.762602e+07 -5.547244e+07 -6.093455e+08
-3.753408e+07 -5.557785e+07 -6.094059e+08
0.000000e+00 0.000000e+00 0.000000e+00
0.000000e+00 0.000000e+00 0.000000e+00
0.000000e+00 0.000000e+00 0.000000e+00
-3.105051e+07 -4.456376e+07 -2.715724e+08
-3.064938e+07 -4.496333e+07 -2.720793e+08
-3.098044e+07 -4.485124e+07 -2.725537e+08
-3.900394e+07 -5.901738e+07 -4.407162e+08
-3.077525e+07 -4.494565e+07 -2.723613e+08
0.000000e+00 0.000000e+00 0.000000e+00
0.000000e+00 0.000000e+00 0.000000e+00
-3.053304e+07 -4.490736e+07 -2.715206e+08
-3.059353e+07 -4.501253e+07 -2.721255e+08
0.000000e+00 0.000000e+00 0.000000e+00
0.000000e+00 0.000000e+00 0.000000e+00
-3.871015e+07 -5.861440e+07 -4.403443e+08
-3.079548e+07 -4.483079e+07 -2.719449e+08
-3.078755e+07 -4.497994e+07 -2.725375e+08
0.000000e+00 0.000000e+00 0.000000e+00
