# vtk DataFile Version 2.0
Simplicial Mesh Example
ASCII
DATASET UNSTRUCTURED_GRID
POINTS 9288 double
3.000000e+05 -9.891990e+04 0.000000e+00
3.328749e+05 -8.356390e+04 0.000000e+00
3.236712e+05 -1.028000e+05 -2.481669e+04
3.234412e+05 -7.797130e+04 -2.292780e+04
3.000000e+05 -8.047108e+04 -2.500930e+04
3.330442e+05 -8.129153e+04 -5.000000e+04
3.500484e+05 -6.067306e+04 -2.480784e+04
3.216408e+05 -5.436978e+04 -2.411338e+04
3.000000e+05 -6.175270e+04 -5.000000e+04
3.000000e+05 -9.578803e+04 -5.000000e+04
3.500876e+05 -9.335705e+04 -2.490082e+04
-2.434777e+05 4.000000e+05 -2.599219e+04
-2.260870e+05 4.000000e+05 0.000000e+00
-2.608696e+05 4.000000e+05 0.000000e+00
-2.490625e+05 3.760838e+05 -2.473779e+04
-2.608696e+05 4.000000e+05 -5.000000e+04
-2.774387e+05 3.778182e+05 -2.091093e+04
-2.260870e+05 4.000000e+05 -5.000000e+04
-2.212397e+05 3.763711e+05 -2.515780e+04
-2.403655e+05 3.668276e+05 -5.000000e+04
-2.291712e+05 3.501689e+05 -2.503383e+04
3.000000e+05 -1.333400e+04 -2.594210e+04
3.000000e+05 1.620150e+03 0.000000e+00
3.223155e+05 -2.465755e+04 -2.313145e+04
3.208476e+05 4.362999e+03 -2.503082e+04
3.328345e+05 -1.263243e+04 -5.000000e+04
3.000000e+05 6.317960e+03 -5.000000e+04
3.329349e+05 -1.580352e+04 0.000000e+00
3.461572e+05 8.854694e+03 -2.503927e+04
3.333333e+04 -3.000000e+05 0.000000e+00
4.999999e+04 -3.000000e+05 -2.423892e+04
5.063514e+04 -3.328415e+05 0.000000e+00
3.468405e+04 -3.243713e+05 -2.478056e+04
-4.000000e+05 5.217391e+04 -5.000000e+04
-3.761490e+05 4.671498e+04 -2.533271e+04
-3.670913e+05 6.486035e+04 -5.000000e+04
-3.763451e+05 7.152968e+04 -2.659205e+04
-3.494435e+05 5.906246e+04 -2.495554e+04
-4.000000e+05 5.217391e+04 0.000000e+00
-3.672143e+05 6.907536e+04 0.000000e+00
-4.000000e+05 6.956522e+04 -2.479812e+04
-4.000000e+05 8.695652e+04 0.000000e+00
-3.773092e+05 9.370598e+04 -2.310057e+04
-1.029831e+05 3.668976e+05 -5.000000e+04
-1.285999e+05 3.481523e+05 -2.500799e+04
-9.430320e+04 3.496698e+05 -2.496278e+04
-1.196698e+05 3.754179e+05 -2.520742e+04
-4.000000e+05 1.043478e+05 -2.585127e+04
-4.000000e+05 1.217391e+05 0.000000e+00
-3.670445e+05 1.033589e+05 0.000000e+00
-3.784472e+05 1.216223e+05 -2.525066e+04
-3.671504e+05 9.984722e+04 -5.000000e+04
-4.000000e+05 1.217391e+05 -5.000000e+04
-3.518150e+05 1.239039e+05 -2.498195e+04
-1.854909e+05 3.326000e+05 -5.000000e+04
-1.715782e+05 3.667876e+05 -5.000000e+04
-2.059594e+05 3.668651e+05 -5.000000e+04
-1.949159e+05 3.518119e+05 -2.501748e+04
-3.685344e+05 -4.001205e+04 -5.000000e+04
-3.777980e+05 -4.402723e+04 -2.479253e+04
-3.513514e+05 -1.505841e+04 -2.514033e+04
-3.785245e+05 -1.648428e+04 -2.451245e+04
-4.000000e+05 -1.739130e+04 -5.000000e+04
-4.000000e+05 -3.478260e+04 -2.395986e+04
-3.670480e+05 -3.383533e+04 0.000000e+00
3.000000e+05 -1.143902e+05 -2.548291e+04
-4.000000e+05 -1.739130e+04 0.000000e+00
3.000000e+05 2.345935e+05 0.000000e+00
3.000000e+05 2.185827e+05 -2.423034e+04
3.237695e+05 2.403593e+05 -2.538032e+04
3.234880e+05 2.159433e+05 -2.715449e+04
3.328230e+05 2.204181e+05 0.000000e+00
3.000000e+05 2.018902e+05 0.000000e+00
3.222234e+05 1.912696e+05 -2.760593e+04
3.000000e+05 2.033094e+05 -5.000000e+04
3.329554e+05 1.883818e+05 -5.000000e+04
3.330197e+05 2.213769e+05 -5.000000e+04
3.000000e+05 2.355396e+05 -5.000000e+04
5.217391e+04 -4.000000e+05 -5.000000e+04
4.822279e+04 -3.761835e+05 -2.489046e+04
6.956522e+04 -4.000000e+05 -2.442176e+04
7.467376e+04 -3.751436e+05 -2.486351e+04
6.867436e+04 -3.670376e+05 -5.000000e+04
-3.680676e+05 -3.102454e+05 -5.000000e+04
-4.000000e+05 -2.956522e+05 -5.000000e+04
-4.000000e+05 -3.129450e+05 -2.471081e+04
-3.754651e+05 -2.988011e+05 -2.507448e+04
8.695652e+04 -4.000000e+05 -5.000000e+04
9.729544e+04 -3.774926e+05 -2.509494e+04
5.217391e+04 -4.000000e+05 0.000000e+00
6.874576e+04 -3.672032e+05 0.000000e+00
8.695652e+04 -4.000000e+05 0.000000e+00
5.891567e+04 -3.495321e+05 -2.495272e+04
3.672741e+05 -3.117788e+05 -5.000000e+04
4.000000e+05 -3.304348e+05 -5.000000e+04
4.000000e+05 -3.129826e+05 -2.495879e+04
3.738516e+05 -3.384516e+05 -2.239978e+04
-2.404610e+05 3.670426e+05 0.000000e+00
-1.333333e+05 3.000000e+05 0.000000e+00
-1.499994e+05 3.000000e+05 -2.403026e+04
-1.666667e+05 3.000000e+05 0.000000e+00
-1.519264e+05 3.329197e+05 0.000000e+00
-2.165723e+05 3.000000e+05 -2.560660e+04
-2.333333e+05 3.000000e+05 0.000000e+00
-2.000000e+05 3.000000e+05 0.000000e+00
-2.194203e+05 3.328736e+05 0.000000e+00
-4.000000e+05 -2.956522e+05 0.000000e+00
-3.670276e+05 -3.094409e+05 0.000000e+00
-1.517754e+05 3.326262e+05 -5.000000e+04
-1.180619e+05 3.326449e+05 -5.000000e+04
-1.340593e+05 3.221917e+05 -2.469176e+04
3.509225e+05 -3.669935e+05 0.000000e+00
3.319809e+05 -3.696896e+05 -2.602382e+04
3.448278e+05 -3.336564e+05 -2.377938e+04
4.000000e+05 -3.652174e+05 0.000000e+00
3.682669e+05 -3.723090e+05 -1.961320e+04
3.739662e+05 -2.951367e+05 -2.511275e+04
3.510512e+05 -3.693023e+05 -5.000000e+04
4.000000e+05 -3.470156e+05 -2.573153e+04
3.700520e+05 -3.432737e+05 -5.000000e+04
-3.000000e+05 1.341874e+05 0.000000e+00
-3.240811e+05 1.346462e+05 -2.508813e+04
-3.000000e+05 1.119133e+05 -2.512501e+04
-3.236189e+05 1.094018e+05 -2.287729e+04
-2.752133e+05 -3.666945e+05 0.000000e+00
-2.782548e+05 -4.000000e+05 -2.529878e+04
-2.956522e+05 -4.000000e+05 0.000000e+00
-2.961803e+05 -3.756864e+05 -2.338151e+04
-3.330014e+05 1.110677e+05 -5.000000e+04
-3.499452e+05 9.076670e+04 -2.474735e+04
-3.220639e+05 8.379236e+04 -2.241387e+04
3.328626e+05 1.553867e+05 -5.000000e+04
3.272780e+05 1.280625e+05 -1.788009e+04
3.492109e+05 1.657230e+05 -2.503498e+04
3.244617e+05 1.678413e+05 -2.496162e+04
-3.000000e+05 8.882203e+04 -5.000000e+04
-3.000000e+05 1.240184e+05 -5.000000e+04
3.327422e+05 1.535051e+05 0.000000e+00
3.670646e+05 1.380831e+05 0.000000e+00
3.327972e+05 1.197111e+05 0.000000e+00
3.516785e+05 1.309250e+05 -2.350011e+04
-3.328711e+05 1.188120e+05 0.000000e+00
-2.774301e+05 -3.000000e+05 -2.400592e+04
-2.666667e+05 -3.000000e+05 0.000000e+00
-3.000000e+05 -3.000000e+05 0.000000e+00
-2.887527e+05 -3.313076e+05 0.000000e+00
1.000000e+05 3.000000e+05 -5.000000e+04
1.166667e+05 3.000000e+05 -2.575187e+04
1.180714e+05 3.327255e+05 -5.000000e+04
9.951220e+04 3.220112e+05 -2.500087e+04
1.314601e+05 3.241679e+05 -2.354016e+04
9.364581e+04 3.501202e+05 -2.499158e+04
1.180711e+05 3.327220e+05 0.000000e+00
1.000000e+05 3.000000e+05 0.000000e+00
8.333333e+04 3.000000e+05 -2.488230e+04
6.666667e+04 3.000000e+05 0.000000e+00
8.437333e+04 3.328426e+05 0.000000e+00
-2.193729e+05 -3.327614e+05 0.000000e+00
-1.984489e+05 -3.487084e+05 -2.498389e+04
-2.255637e+05 -3.220916e+05 -2.480774e+04
-1.997150e+05 -3.216678e+05 -2.494973e+04
-2.166083e+05 -3.000000e+05 -2.432669e+04
-2.000000e+05 -3.000000e+05 0.000000e+00
1.181012e+05 -3.327393e+05 -5.000000e+04
1.181198e+05 -3.328215e+05 0.000000e+00
1.267692e+05 -3.500325e+05 -2.501203e+04
1.378469e+05 -3.238640e+05 -2.479444e+04
-2.194361e+05 -3.328434e+05 -5.000000e+04
3.000000e+05 -6.540655e+04 0.000000e+00
3.000000e+05 -4.704409e+04 -2.587389e+04
-2.000000e+05 -3.000000e+05 -5.000000e+04
-1.181761e+05 -3.329602e+05 -5.000000e+04
-1.256518e+05 -3.487565e+05 -2.501145e+04
-1.021642e+05 -3.239975e+05 -2.515764e+04
-1.357323e+05 -3.240118e+05 -2.507957e+04
8.695652e+04 4.000000e+05 -5.000000e+04
6.956522e+04 4.000000e+05 -2.479812e+04
6.873608e+04 3.672727e+05 -5.000000e+04
8.852908e+04 3.783599e+05 -2.511466e+04
-3.000000e+05 -3.000000e+05 -5.000000e+04
-3.334151e+05 -3.298278e+05 -5.000000e+04
-2.898053e+05 -3.326046e+05 -5.000000e+04
-3.144439e+05 -3.130012e+05 -2.491379e+04
6.182965e+04 3.779997e+05 -2.496700e+04
4.000000e+05 1.913043e+05 0.000000e+00
3.671396e+05 2.066670e+05 0.000000e+00
4.000000e+05 2.086957e+05 -2.620830e+04
3.759771e+05 1.891692e+05 -2.534471e+04
8.695652e+04 4.000000e+05 0.000000e+00
6.873267e+04 3.672065e+05 0.000000e+00
-3.435887e+04 -3.670248e+05 0.000000e+00
-3.478260e+04 -4.000000e+05 -2.451623e+04
-5.217391e+04 -4.000000e+05 0.000000e+00
-5.048147e+04 -3.761822e+05 -2.485406e+04
3.436651e+04 3.672768e+05 -5.000000e+04
1.739130e+04 4.000000e+05 -5.000000e+04
1.393202e+04 3.758346e+05 -2.491244e+04
4.003765e+04 3.757249e+05 -2.497885e+04
3.478260e+04 4.000000e+05 -2.504496e+04
5.217391e+04 4.000000e+05 0.000000e+00
3.435410e+04 3.670437e+05 0.000000e+00
2.755712e+04 3.505303e+05 -2.500575e+04
1.739130e+04 4.000000e+05 0.000000e+00
3.670891e+05 1.862933e+03 -5.000000e+04
3.742761e+05 1.677027e+04 -2.493456e+04
3.512355e+05 -2.497308e+04 -2.483192e+04
3.781086e+05 -1.765023e+04 -2.493225e+04
4.000000e+05 -1.739130e+04 -5.000000e+04
4.000000e+05 -1.192804e-02 -2.530346e+04
-3.328715e+05 -1.848068e+05 0.000000e+00
-3.671287e+05 -2.058668e+05 0.000000e+00
-3.671292e+05 -1.714095e+05 0.000000e+00
-3.501225e+05 -1.946877e+05 -2.524820e+04
3.672778e+05 4.586450e+02 0.000000e+00
-4.000000e+05 -2.260870e+05 -5.000000e+04
-4.000000e+05 -2.608696e+05 -5.000000e+04
-3.668871e+05 -2.388668e+05 -5.000000e+04
-4.000000e+05 -2.434777e+05 -2.599219e+04
4.000000e+05 -1.739130e+04 0.000000e+00
-3.000000e+05 1.842938e+04 -5.000000e+04
-3.329296e+05 5.601896e+03 -5.000000e+04
-3.225187e+05 -4.403791e+03 -2.678657e+04
-3.199464e+05 2.467194e+04 -2.281215e+04
-3.480737e+05 2.395723e+04 -2.492980e+04
-3.000000e+05 3.469979e+04 0.000000e+00
-3.328742e+05 5.154336e+04 0.000000e+00
-3.216158e+05 5.471200e+04 -2.444254e+04
-4.000000e+05 3.478260e+04 -2.504496e+04
-3.670456e+05 3.476383e+04 0.000000e+00
-4.000000e+05 1.739130e+04 0.000000e+00
-3.756042e+05 1.458470e+04 -2.490399e+04
-1.000000e+05 3.000000e+05 -5.000000e+04
-8.333335e+04 3.000000e+05 -2.367065e+04
-6.666667e+04 3.000000e+05 -5.000000e+04
-7.584987e+04 3.234585e+05 -2.456040e+04
-5.058931e+04 3.327252e+05 0.000000e+00
-6.107262e+04 3.493397e+05 -2.491598e+04
-4.618311e+04 3.199143e+05 -2.473589e+04
-8.432500e+04 3.326142e+05 -5.000000e+04
-1.035769e+05 3.235841e+05 -2.475576e+04
-6.666667e+04 3.000000e+05 0.000000e+00
-1.000000e+05 3.000000e+05 0.000000e+00
-8.439335e+04 3.328531e+05 0.000000e+00
[...]
POINT_DATA 9288
VECTORS displacement double
-8.784227e-03 8.775038e-04 -4.674810e-03
-6.080708e-03 3.980441e-04 -4.024895e-03
-6.424454e-03 7.400746e-04 -3.940239e-03
-6.601348e-03 2.621732e-04 -4.048685e-03
-8.504295e-03 4.047508e-04 -4.571900e-03
-5.700727e-03 2.742868e-04 -3.568472e-03
-4.382372e-03 -1.520713e-04 -3.631963e-03
-6.842374e-03 -2.358791e-04 -4.128819e-03
-8.578658e-03 -4.038586e-05 -4.362307e-03
-8.375655e-03 6.981037e-04 -4.219717e-03
-4.277576e-03 4.677824e-04 -3.557611e-03
-3.085016e-03 0.000000e+00 -5.317403e-03
-3.359544e-03 0.000000e+00 -5.660203e-03
-2.484088e-03 0.000000e+00 -5.257525e-03
-2.970173e-03 -1.401327e-03 -5.471627e-03
-2.675165e-03 0.000000e+00 -4.831059e-03
-2.279414e-03 -1.356861e-03 -5.127847e-03
-3.514300e-03 0.000000e+00 -5.193944e-03
-3.678708e-03 -1.315255e-03 -5.780625e-03
-3.129340e-03 -2.092752e-03 -5.399422e-03
-3.551524e-03 -2.650138e-03 -6.261421e-03
-8.649142e-03 -1.162129e-03 -4.660555e-03
-9.066255e-03 -1.549828e-03 -4.842018e-03
-6.825812e-03 -8.929465e-04 -4.151510e-03
-6.878775e-03 -1.537767e-03 -4.157841e-03
-5.845386e-03 -1.145395e-03 -3.663647e-03
-8.620075e-03 -1.614777e-03 -4.354721e-03
-6.220469e-03 -1.092648e-03 -4.111108e-03
-4.708500e-03 -1.588558e-03 -3.688670e-03
-1.103370e-02 1.174879e-03 -9.529910e-03
-1.140771e-02 2.009575e-03 -9.086581e-03
-1.165392e-02 1.863972e-03 -8.043057e-03
-1.107096e-02 1.641221e-03 -8.712794e-03
0.000000e+00 -6.430453e-03 -1.696605e-02
-3.618084e-03 -3.189039e-03 -1.681346e-02
3.360612e-04 -6.864957e-03 -1.613116e-02
-3.152223e-03 -4.421622e-03 -1.691389e-02
-8.523009e-03 -2.111827e-03 -1.365646e-02
0.000000e+00 -2.771539e-03 -1.715175e-02
-8.080600e-03 -2.355528e-03 -1.570006e-02
0.000000e+00 -4.717555e-03 -1.687811e-02
0.000000e+00 -4.574227e-03 -1.670436e-02
-2.840779e-03 -5.142564e-03 -1.649618e-02
-6.897402e-03 -1.974430e-03 -6.306163e-03
-6.265398e-03 -2.322187e-03 -7.078091e-03
-7.159568e-03 -2.215594e-03 -7.027729e-03
-6.444208e-03 -1.210049e-03 -6.441731e-03
0.000000e+00 -6.201912e-03 -1.665900e-02
0.000000e+00 -6.321217e-03 -1.568040e-02
-5.935431e-03 -4.226041e-03 -1.572560e-02
-2.036317e-03 -6.438641e-03 -1.583243e-02
-3.242305e-04 -8.354012e-03 -1.602190e-02
0.000000e+00 -9.090723e-03 -1.526138e-02
-4.847752e-03 -5.122369e-03 -1.486153e-02
-4.660494e-03 -3.885437e-03 -6.893210e-03
-4.981160e-03 -2.064293e-03 -6.109406e-03
-4.044879e-03 -2.080946e-03 -5.813933e-03
-4.467442e-03 -2.385486e-03 -6.587507e-03
1.571565e-03 7.819166e-04 -1.522283e-02
-3.687667e-03 2.947521e-04 -1.666876e-02
-9.783585e-03 -7.154425e-04 -1.236081e-02
-4.418138e-03 -9.176821e-04 -1.640803e-02
0.000000e+00 -7.355012e-04 -1.702592e-02
0.000000e+00 -2.663673e-04 -1.724499e-02
-1.175266e-02 -4.430486e-04 -1.508242e-02
-8.210372e-03 1.075516e-03 -4.389184e-03
0.000000e+00 -6.208371e-04 -1.666487e-02
-5.825177e-03 -3.548132e-03 -3.211601e-03
-5.841306e-03 -3.556660e-03 -3.158985e-03
-4.254466e-03 -3.116697e-03 -2.779101e-03
-4.538354e-03 -3.352355e-03 -2.921372e-03
-4.116581e-03 -3.393143e-03 -3.025114e-03
-6.343253e-03 -3.847004e-03 -3.464306e-03
-4.917509e-03 -3.520147e-03 -3.095230e-03
-5.959927e-03 -3.577913e-03 -3.050763e-03
-4.192160e-03 -3.361723e-03 -2.811262e-03
-3.856742e-03 -3.162129e-03 -2.624111e-03
-5.471827e-03 -3.269206e-03 -2.801560e-03
-1.120977e-02 0.000000e+00 -6.492795e-03
-1.126678e-02 7.619822e-04 -7.134577e-03
-1.143189e-02 0.000000e+00 -6.365324e-03
-1.145471e-02 8.709966e-04 -6.419129e-03
-1.140216e-02 1.406204e-03 -6.363242e-03
-5.554526e-04 5.450362e-03 -7.971598e-03
0.000000e+00 6.206273e-03 -8.477924e-03
0.000000e+00 5.147225e-03 -8.156944e-03
-5.960260e-04 5.741631e-03 -8.891576e-03
-1.128796e-02 0.000000e+00 -5.580600e-03
-1.145393e-02 8.115424e-04 -5.753349e-03
-1.171604e-02 0.000000e+00 -6.962704e-03
-1.188638e-02 1.206660e-03 -6.802424e-03
-1.187733e-02 0.000000e+00 -6.055476e-03
-1.140920e-02 1.513250e-03 -7.327581e-03
-1.858524e-03 1.103588e-03 -2.289386e-03
0.000000e+00 8.767713e-04 -2.217049e-03
0.000000e+00 1.112489e-03 -2.443085e-03
-1.470103e-03 8.513656e-04 -2.431736e-03
-3.032419e-03 -2.088927e-03 -5.839529e-03
-6.444633e-03 -2.664530e-03 -8.800067e-03
-6.012001e-03 -3.106158e-03 -8.788676e-03
-5.610317e-03 -3.061960e-03 -8.664374e-03
-5.680054e-03 -2.979009e-03 -7.514628e-03
-4.231318e-03 -4.063700e-03 -8.359728e-03
-3.783157e-03 -4.400834e-03 -8.125224e-03
-4.737775e-03 -3.681131e-03 -8.422177e-03
-3.806689e-03 -3.578385e-03 -6.971387e-03
0.000000e+00 6.443397e-03 -9.089114e-03
-7.601245e-04 5.673886e-03 -8.637936e-03
-5.636659e-03 -3.787784e-03 -7.155221e-03
-6.588622e-03 -3.727033e-03 -7.247586e-03
-6.242001e-03 -2.936422e-03 -7.974799e-03
-2.721244e-03 5.134436e-04 -2.601249e-03
-3.669499e-03 4.735075e-04 -2.447648e-03
-3.101200e-03 9.603788e-04 -2.498058e-03
0.000000e+00 5.033196e-04 -2.538395e-03
-1.727676e-03 3.979911e-04 -2.416115e-03
-1.560048e-03 1.315155e-03 -2.518865e-03
-2.598834e-03 4.298601e-04 -2.211142e-03
0.000000e+00 7.196431e-04 -2.365084e-03
-1.627314e-03 7.418048e-04 -2.217764e-03
-1.703621e-02 4.838695e-03 -9.179393e-03
-7.189665e-03 -3.288445e-03 -1.294380e-02
-1.293101e-02 1.546702e-03 -7.164684e-03
-1.056609e-02 -9.476987e-04 -1.183961e-02
-2.865711e-03 1.678059e-03 -8.192292e-03
-2.956606e-03 0.000000e+00 -7.605361e-03
-2.212338e-03 0.000000e+00 -7.402719e-03
-2.469943e-03 1.299139e-03 -7.490744e-03
-7.094528e-04 -7.849136e-03 -1.275628e-02
-7.090087e-03 -3.400981e-03 -1.458092e-02
-1.307362e-02 9.277316e-04 -9.041589e-03
-4.553407e-03 -3.396719e-03 -3.003354e-03
-5.388446e-03 -3.443222e-03 -3.522368e-03
-3.450279e-03 -3.395449e-03 -3.007348e-03
-5.065932e-03 -3.555259e-03 -3.248414e-03
-1.067926e-03 -6.657623e-03 -3.360564e-03
-8.280687e-04 -7.944715e-03 -9.052281e-03
-4.896725e-03 -3.604831e-03 -3.422534e-03
-2.509399e-03 -3.347497e-03 -3.213439e-03
-5.287689e-03 -3.433916e-03 -3.627932e-03
-3.571808e-03 -3.279899e-03 -3.194887e-03
-1.202420e-02 -6.973510e-04 -1.284908e-02
-3.667840e-03 3.402844e-03 -1.043437e-02
-4.407386e-03 2.384556e-03 -1.054460e-02
-3.152027e-03 3.825114e-03 -1.005800e-02
-2.844384e-03 3.174798e-03 -9.005914e-03
-1.046893e-02 -4.275404e-03 -5.273881e-03
-1.030352e-02 -3.966661e-03 -5.210831e-03
-9.744763e-03 -2.865259e-03 -4.170591e-03
-1.006417e-02 -3.305421e-03 -5.018300e-03
-9.797801e-03 -3.068578e-03 -4.362214e-03
-9.801521e-03 -2.251387e-03 -4.544173e-03
-1.011697e-02 -3.106698e-03 -4.585030e-03
-1.074055e-02 -4.412143e-03 -5.725172e-03
-1.041111e-02 -4.094421e-03 -5.991404e-03
-1.060149e-02 -4.387064e-03 -6.541777e-03
-1.027762e-02 -3.274484e-03 -5.195332e-03
-5.205644e-03 8.291588e-04 -1.025794e-02
-5.593433e-03 7.330647e-04 -1.015243e-02
-5.211591e-03 1.178306e-03 -1.047559e-02
-5.970481e-03 2.321655e-04 -1.102345e-02
-5.895966e-03 4.072338e-05 -1.146040e-02
-6.823079e-03 -2.393431e-03 -1.139733e-02
-1.162268e-02 2.355248e-03 -5.666724e-03
-1.194505e-02 2.259939e-03 -6.079233e-03
-1.139812e-02 1.668180e-03 -5.395863e-03
-1.152765e-02 2.318111e-03 -5.576185e-03
-4.627298e-03 3.033535e-03 -9.904309e-03
-9.031528e-03 1.175269e-04 -4.801407e-03
-8.638028e-03 -3.675935e-04 -4.652019e-03
-5.188192e-03 3.514400e-03 -1.119264e-02
-7.634860e-03 1.903113e-03 -1.079653e-02
-7.466595e-03 -1.624721e-04 -1.085835e-02
-7.947613e-03 -1.159336e-03 -1.141154e-02
-7.346558e-03 -1.059768e-03 -1.148691e-02
-9.468095e-03 0.000000e+00 -3.950992e-03
-9.605022e-03 0.000000e+00 -4.471906e-03
-9.592600e-03 -1.642849e-03 -4.435599e-03
-9.636251e-03 -1.005346e-03 -4.303692e-03
-2.136887e-03 5.170493e-03 -9.478228e-03
-1.390823e-03 4.144807e-03 -7.714707e-03
-2.439735e-03 3.841208e-03 -8.395531e-03
-2.265471e-03 4.213267e-03 -9.096610e-03
-9.643526e-03 -1.083224e-03 -4.694114e-03
0.000000e+00 -3.302110e-03 -2.900880e-03
-2.104189e-03 -3.282957e-03 -2.896069e-03
0.000000e+00 -3.102183e-03 -2.623369e-03
-1.548161e-03 -3.242116e-03 -2.750456e-03
-9.883909e-03 0.000000e+00 -4.393830e-03
-9.986667e-03 -1.713225e-03 -4.851241e-03
-9.984407e-03 4.049996e-04 -9.390016e-03
-9.763694e-03 0.000000e+00 -8.966347e-03
-9.566038e-03 0.000000e+00 -9.323904e-03
-9.380645e-03 3.036068e-04 -9.481970e-03
-9.478497e-03 -1.741456e-03 -4.978360e-03
-9.223007e-03 0.000000e+00 -4.882028e-03
-9.271488e-03 -1.187388e-03 -5.436424e-03
-9.536911e-03 -1.198380e-03 -5.074796e-03
-9.469595e-03 0.000000e+00 -4.976581e-03
-9.833864e-03 0.000000e+00 -4.879142e-03
-9.781231e-03 -1.778717e-03 -5.407622e-03
-9.521651e-03 -2.300925e-03 -5.723934e-03
-9.520727e-03 0.000000e+00 -5.361249e-03
-2.847745e-03 -1.408555e-03 -3.214922e-03
-2.255013e-03 -1.705657e-03 -3.386088e-03
-4.316048e-03 -8.876962e-04 -3.640290e-03
-1.946580e-03 -1.029458e-03 -3.403238e-03
0.000000e+00 -1.030424e-03 -3.090528e-03
0.000000e+00 -1.371437e-03 -3.309750e-03
-8.249007e-03 1.703939e-03 -1.339741e-02
-2.570841e-03 6.272813e-03 -1.407694e-02
-4.158514e-03 4.618918e-03 -1.538065e-02
-2.903191e-03 5.633781e-03 -1.424632e-02
-3.037445e-03 -1.411183e-03 -3.646317e-03
0.000000e+00 8.481950e-03 -1.240516e-02
0.000000e+00 7.601119e-03 -1.032114e-02
-2.324339e-04 8.256835e-03 -1.203161e-02
0.000000e+00 7.157782e-03 -1.197027e-02
0.000000e+00 -1.039684e-03 -3.536526e-03
1.221061e-03 -3.249130e-03 1.114291e-02
1.391815e-03 -2.882674e-03 -6.570256e-03
-1.659257e-02 -2.061131e-04 -8.672816e-04
-1.893326e-02 1.591034e-03 -1.763242e-03
-9.791641e-03 -1.150534e-03 -1.206245e-02
-4.530714e-02 1.120139e-02 8.873672e-03
-2.295497e-02 3.052510e-03 -8.610123e-03
-1.475236e-02 1.384296e-03 -5.835920e-03
0.000000e+00 -3.114485e-03 -1.793396e-02
-1.012783e-02 -1.115735e-03 -1.549423e-02
0.000000e+00 -1.463374e-03 -1.712431e-02
-4.269573e-03 -1.826826e-03 -1.635203e-02
-7.321120e-03 -5.191006e-03 -8.418250e-03
-7.590770e-03 -2.935404e-03 -8.733684e-03
-8.273411e-03 -5.221422e-03 -8.256274e-03
-7.674990e-03 -2.864883e-03 -7.872535e-03
-8.352396e-03 -2.940386e-03 -7.343590e-03
-7.961537e-03 -2.224167e-03 -6.861659e-03
-8.387426e-03 -3.060155e-03 -7.731278e-03
-7.490494e-03 -3.682424e-03 -7.151432e-03
-6.990444e-03 -2.904335e-03 -7.919238e-03
-7.958555e-03 -2.761245e-03 -8.610742e-03
-7.203568e-03 -2.601553e-03 -8.767856e-03
-7.499041e-03 -2.852058e-03 -7.562402e-03
-5.769478e-03 5.588812e-05 -1.109111e-02
-4.458971e-03 1.894314e-03 -1.014502e-02
-3.648691e-03 3.381199e-03 -9.179047e-03
-3.011735e-03 5.179585e-03 -1.020116e-02
-3.545083e-03 2.872049e-03 -9.547784e-03
-4.548823e-03 1.349043e-03 -9.522471e-03
-4.855568e-03 1.793190e-03 -1.094606e-02
-4.009348e-03 2.138896e-03 -9.629547e-03
-2.868932e-03 -4.004692e-03 -6.189439e-03
-3.349452e-03 -5.573363e-03 -7.741971e-03
-3.732246e-03 -3.937920e-03 -6.610626e-03
-3.506800e-03 -3.735210e-03 -7.041053e-03
-2.703618e-03 -2.849157e-03 -5.822361e-03
-2.638225e-03 -4.114114e-03 -6.524724e-03
-2.886396e-03 -3.934266e-03 -6.540654e-03
-6.161431e-03 2.178859e-03 -1.227433e-02
-5.197738e-03 3.942382e-03 -1.310430e-02
-1.139948e-02 -2.548651e-03 -1.129084e-02
-4.913681e-03 3.927430e-03 -1.310752e-02
-3.519729e-03 4.821287e-03 -1.255577e-02
-2.229091e-03 6.140180e-03 -1.306454e-02
-5.281859e-04 8.225709e-03 -1.274495e-02
-7.707398e-04 6.964522e-03 -1.143308e-02
0.000000e+00 7.433805e-03 -1.097319e-02
-1.606766e-03 7.058487e-03 -1.229033e-02
-1.142804e-03 6.636696e-03 -1.036666e-02
-1.059162e-03 6.887674e-03 -1.360237e-02
-1.751283e-03 6.087725e-03 -1.123480e-02
-1.025295e-03 2.050524e-03 -6.379959e-03
-1.535978e-03 1.906294e-03 -6.979188e-03
-1.228200e-03 3.949835e-03 -7.796667e-03
-5.442230e-04 3.660085e-03 -7.178559e-03
-8.107440e-03 -4.289888e-06 -1.024657e-02
-8.575701e-03 0.000000e+00 -9.739641e-03
-7.524104e-03 0.000000e+00 -9.917006e-03
-7.977986e-03 0.000000e+00 -9.818815e-03
0.000000e+00 3.348840e-03 -6.856799e-03
0.000000e+00 4.763473e-03 -7.594954e-03
-9.613575e-04 2.289584e-03 -6.901406e-03
-5.450547e-04 1.794796e-03 -6.473915e-03
-5.754615e-04 4.080867e-03 -7.398489e-03
0.000000e+00 2.539087e-03 -6.600363e-03
-7.993542e-03 1.296473e-03 -4.010544e-03
-5.200424e-03 1.319568e-03 -3.300080e-03
-5.486303e-03 8.544528e-04 -3.468649e-03
-6.129107e-03 1.244605e-03 -3.774007e-03
-5.798314e-03 1.633426e-03 -3.557848e-03
-3.902268e-03 1.413302e-03 -3.270853e-03
-4.115368e-03 1.005611e-03 -3.432612e-03
-7.824418e-03 1.598926e-03 -4.145070e-03
-5.574386e-03 1.518287e-03 -3.722169e-03
-5.870692e-03 1.028911e-03 -3.898018e-03
-8.412777e-03 1.516755e-03 -4.460691e-03
-7.075713e-03 1.000655e-03 -1.000885e-02
-7.028164e-03 0.000000e+00 -9.847220e-03
-7.167847e-03 -1.368748e-04 -1.034444e-02
-6.528948e-03 3.441750e-04 -1.044842e-02
-1.566083e-03 0.000000e+00 -2.433498e-03
-1.496722e-03 -1.115932e-03 -2.468628e-03
-2.624924e-03 -7.362864e-04 -2.483140e-03
-2.827090e-03 -5.699121e-04 -2.317663e-03
-4.016666e-03 -8.561805e-04 -2.551227e-03
-2.770077e-03 -1.221116e-03 -2.334153e-03
-4.383121e-03 -1.284897e-03 -2.428021e-03
-4.631135e-03 -6.267246e-04 -2.401685e-03
-2.107612e-03 -6.823100e-04 -2.097414e-03
-2.342333e-03 0.000000e+00 -2.274268e-03
-2.992871e-03 0.000000e+00 -2.114744e-03
-3.790262e-03 0.000000e+00 -2.334624e-03
-3.107807e-03 0.000000e+00 -2.478741e-03
2.239504e-05 8.506685e-03 -1.367723e-02
-1.795264e-03 6.108008e-03 -1.526772e-02
-1.682989e-03 -3.271564e-03 -2.902833e-03
-1.822350e-03 -3.111135e-03 -3.052335e-03
0.000000e+00 -3.178074e-03 -2.906325e-03
0.000000e+00 -3.191614e-03 -3.191138e-03
-2.336481e-03 -3.161506e-03 -2.792674e-03
-2.500477e-03 -2.938139e-03 -2.940833e-03
-5.162598e-03 -3.127444e-03 -3.554392e-03
-1.959815e-03 -2.807090e-03 -3.187824e-03
0.000000e+00 -3.015884e-03 -2.769601e-03
0.000000e+00 -2.941258e-03 -3.048141e-03
-5.718170e-03 -1.843642e-03 -3.628223e-03
-4.265103e-03 -2.241101e-03 -3.564801e-03
-6.455571e-03 -2.155306e-03 -4.009913e-03
-8.528914e-03 -1.938230e-03 -4.601960e-03
-8.320462e-03 -2.370587e-03 -4.252731e-03
-8.856368e-03 -2.360398e-03 -4.729228e-03
-5.929671e-03 -2.517516e-03 -3.970670e-03
-6.120020e-03 -1.843412e-03 -4.068189e-03
-3.513029e-03 2.008757e-03 -8.766351e-03
-3.571741e-03 1.022664e-03 -8.273459e-03
-7.369080e-03 -2.822978e-03 -1.208657e-02
-7.539923e-03 -4.447930e-03 -1.170219e-02
-6.802962e-03 -1.550497e-03 -1.187628e-02
-6.671121e-03 -4.320732e-04 -1.124441e-02
-2.876257e-03 1.980831e-03 -7.670375e-03
-2.342750e-03 0.000000e+00 -6.850077e-03
-1.380499e-03 0.000000e+00 -6.802503e-03
-2.012729e-03 0.000000e+00 -6.950304e-03
-1.857989e-03 2.145752e-03 -7.523443e-03
-1.911662e-03 1.923753e-03 -7.004102e-03
-3.252021e-03 5.277898e-03 -1.171199e-02
-1.570520e-03 0.000000e+00 -6.272195e-03
-1.165128e-02 -5.550986e-04 -1.520423e-02
0.000000e+00 -1.520444e-03 -1.771613e-02
6.956642e-04 -2.122430e-03 -1.523853e-02
0.000000e+00 -3.815355e-03 -1.715210e-02
1.591121e-03 -4.739113e-03 -1.567108e-02
-2.985963e-03 -2.086485e-03 -3.594384e-03
0.000000e+00 -2.007779e-03 -3.263047e-03
-2.021519e-03 -2.340311e-03 -3.299373e-03
0.000000e+00 9.707251e-04 -2.594306e-03
-2.857541e-03 -2.661580e-03 -3.501603e-03
-4.009681e-03 -2.735841e-03 -3.455349e-03
-1.045036e-03 7.407513e-03 -1.133744e-02
-2.640483e-03 -2.562715e-03 -3.051723e-03
0.000000e+00 -2.541849e-03 -3.176418e-03
0.000000e+00 -2.250054e-03 -2.985517e-03
-1.706521e-02 1.809876e-03 -1.110914e-02
-2.613851e-02 9.977125e-03 -5.252600e-03
-1.783179e-02 3.511346e-03 -1.199878e-03
-6.191468e-05 -6.513250e-03 -1.086239e-02
-3.626250e-02 1.259031e-02 1.444809e-03
-1.152473e-02 1.213802e-03 -5.050013e-03
-1.135496e-02 0.000000e+00 -5.456216e-03
-1.189967e-02 1.261347e-03 -5.885120e-03
-1.108608e-02 9.316219e-04 -4.790160e-03
-1.969473e-03 1.245540e-03 -2.681858e-03
-3.260994e-03 1.354880e-03 -2.602797e-03
-2.129525e-03 1.568075e-03 -2.799086e-03
-1.105165e-02 0.000000e+00 -4.509567e-03
-1.078167e-02 1.116528e-03 -4.338528e-03
-1.093975e-02 0.000000e+00 -4.672814e-03
-1.094935e-02 1.177830e-03 -4.591217e-03
-1.020935e-02 1.021581e-03 -3.921078e-03
-1.134799e-02 1.286702e-03 -5.423050e-03
-1.081885e-02 1.555073e-03 -4.591706e-03
-2.639941e-03 1.540014e-03 -3.268742e-03
0.000000e+00 1.346767e-03 -3.240191e-03
0.000000e+00 1.400136e-03 -2.967115e-03
-1.906815e-03 1.252984e-03 -3.113830e-03
0.000000e+00 1.186595e-03 -2.806831e-03
0.000000e+00 1.061869e-03 -3.103017e-03
-2.620155e-03 1.014154e-03 -2.995389e-03
-2.818103e-03 1.173627e-03 -3.421816e-03
-2.004574e-03 8.226026e-04 -3.246986e-03
-7.375545e-03 1.774710e-03 -3.052245e-03
-7.032975e-03 1.757877e-03 -3.136923e-03
-8.392126e-03 2.006720e-03 -3.518066e-03
-7.094310e-03 1.450559e-03 -3.036251e-03
-6.276284e-03 1.323850e-03 -3.009934e-03
-7.802958e-03 2.009474e-03 -3.442010e-03
-5.930108e-03 1.134563e-03 -2.597268e-03
-4.917947e-03 1.336290e-03 -2.714762e-03
-5.301291e-03 9.221916e-04 -2.654013e-03
-7.116656e-03 1.028488e-03 -2.938123e-03
-6.022526e-03 1.454484e-03 -9.689267e-03
-6.482300e-03 0.000000e+00 -9.121054e-03
-6.012675e-03 0.000000e+00 -9.541825e-03
-7.601280e-03 1.351712e-03 -2.941992e-03
-8.607188e-03 1.685220e-03 -3.454795e-03
-8.030115e-03 1.553432e-03 -3.346281e-03
-8.611383e-03 1.194938e-03 -3.335136e-03
-9.440948e-03 2.361837e-03 -3.948896e-03
-9.790730e-03 2.306268e-03 -4.095480e-03
-9.104757e-03 -1.359101e-03 -3.451166e-03
-9.484789e-03 -2.012318e-03 -3.975213e-03
-8.942216e-03 -9.559218e-04 -3.413873e-03
-9.436344e-03 -1.033126e-03 -3.853674e-03
-9.904908e-03 -1.638721e-03 -4.331076e-03
-9.103979e-03 0.000000e+00 -3.504429e-03
-9.520013e-03 -1.503594e-03 -3.849434e-03
-9.627840e-03 0.000000e+00 -3.916961e-03
-2.904976e-04 -9.269163e-03 -1.111353e-02
0.000000e+00 -8.422775e-03 -1.113761e-02
-1.065154e-03 -8.161534e-03 -1.250572e-02
-7.532263e-04 -8.200293e-03 -1.031921e-02
0.000000e+00 -7.949371e-03 -8.983513e-03
-7.280906e-04 -7.425887e-03 -8.264544e-03
-9.658664e-04 -8.476199e-03 -9.377508e-03
0.000000e+00 -8.927366e-03 -1.009390e-02
0.000000e+00 -8.898364e-03 -9.524243e-03
-3.024638e-04 -8.499763e-03 -8.985502e-03
-1.711249e-03 -7.483960e-03 -1.006506e-02
-1.011103e-02 -3.922859e-03 -4.566281e-03
-9.209930e-03 -2.563954e-03 -3.633337e-03
-9.877670e-03 -3.714754e-03 -4.488023e-03
-1.048829e-02 -4.216419e-03 -4.999394e-03
-9.630980e-03 -2.860144e-03 -4.039911e-03
-4.981735e-03 1.582191e-03 -9.125881e-03
-4.327810e-03 0.000000e+00 -8.178617e-03
-4.997896e-03 0.000000e+00 -9.018975e-03
-4.619662e-03 7.333941e-04 -8.996918e-03
-5.009247e-03 7.207327e-04 -9.555375e-03
-5.581072e-03 4.642611e-04 -9.592699e-03
-4.252215e-03 0.000000e+00 -8.786407e-03
-3.966580e-03 0.000000e+00 -8.332785e-03
-9.097115e-03 -1.829873e-03 -5.495969e-03
-9.043785e-03 0.000000e+00 -5.447929e-03
-8.717435e-03 0.000000e+00 -5.333787e-03
-8.824304e-03 -1.217844e-03 -5.849327e-03
-8.653890e-03 -1.722856e-03 -6.276916e-03
-8.674119e-03 -2.371387e-03 -6.580166e-03
-8.153816e-03 -1.160795e-03 -6.181601e-03
-8.437740e-03 0.000000e+00 -5.835177e-03
-8.953928e-03 0.000000e+00 -5.793843e-03
-9.221470e-03 -2.844565e-03 -6.469249e-03
-9.309529e-03 -1.739149e-03 -5.899295e-03
-6.140563e-03 -2.502210e-03 -2.635939e-03
-5.805719e-03 -2.485554e-03 -2.754068e-03
-4.877249e-03 -1.619380e-03 -2.328654e-03
-5.857510e-03 -1.993812e-03 -2.670816e-03
-4.052299e-03 -1.965674e-03 -2.487245e-03
-5.165266e-03 -1.805189e-03 -2.723684e-03
-5.868673e-03 -1.378749e-03 -2.586057e-03
-6.973570e-03 -2.749075e-03 -3.004927e-03
-6.608046e-03 -2.018788e-03 -2.920486e-03
-6.451968e-03 -2.734521e-03 -3.027513e-03
-1.180036e-02 2.999412e-03 -5.439952e-03
-1.168499e-02 2.796979e-03 -5.776555e-03
-1.093059e-02 2.597036e-03 -4.855431e-03
-1.089252e-02 2.159965e-03 -4.753200e-03
-1.016561e-02 1.854114e-03 -3.996880e-03
-1.134225e-02 2.845549e-03 -4.986068e-03
-1.071745e-02 2.066930e-03 -4.428101e-03
-9.848570e-03 1.370810e-03 -3.870647e-03
-9.898832e-03 1.935456e-03 -4.023470e-03
-6.419780e-03 2.068803e-03 -3.311776e-03
-4.515518e-03 1.871846e-03 -3.090194e-03
-4.203747e-03 1.617441e-03 -2.912069e-03
-4.721131e-03 1.712704e-03 -2.876957e-03
-3.928476e-03 1.419162e-03 -2.494964e-03
-3.202094e-03 1.609196e-03 -2.729422e-03
-6.049314e-03 1.823309e-03 -3.034970e-03
-6.048445e-03 1.824743e-03 -2.903027e-03
-6.406297e-03 2.010495e-03 -3.258594e-03
-6.209470e-03 -3.276484e-04 -4.105211e-03
-9.126185e-03 -7.107842e-04 -4.860865e-03