# vtk DataFile Version 2.0
Simplicial Mesh Example
ASCII
DATASET UNSTRUCTURED_GRID
POINTS 9288 double
3.000000e+05 -9.891990e+04 0.000000e+00
3.328749e+05 -8.356390e+04 0.000000e+00
3.236712e+05 -1.028000e+05 -2.481669e+04
3.234412e+05 -7.797130e+04 -2.292780e+04
3.000000e+05 -8.047108e+04 -2.500930e+04
3.330442e+05 -8.129153e+04 -5.000000e+04
3.500484e+05 -6.067306e+04 -2.480784e+04
3.216408e+05 -5.436978e+04 -2.411338e+04
3.000000e+05 -6.175270e+04 -5.000000e+04
3.000000e+05 -9.578803e+04 -5.000000e+04
3.500876e+05 -9.335705e+04 -2.490082e+04
-2.434777e+05 4.000000e+05 -2.599219e+04
-2.260870e+05 4.000000e+05 0.000000e+00
-2.608696e+05 4.000000e+05 0.000000e+00
-2.490625e+05 3.760838e+05 -2.473779e+04
-2.608696e+05 4.000000e+05 -5.000000e+04
-2.774387e+05 3.778182e+05 -2.091093e+04
-2.260870e+05 4.000000e+05 -5.000000e+04
-2.212397e+05 3.763711e+05 -2.515780e+04
-2.403655e+05 3.668276e+05 -5.000000e+04
-2.291712e+05 3.501689e+05 -2.503383e+04
3.000000e+05 -1.333400e+04 -2.594210e+04
3.000000e+05 1.620150e+03 0.000000e+00
3.223155e+05 -2.465755e+04 -2.313145e+04
3.208476e+05 4.362999e+03 -2.503082e+04
3.328345e+05 -1.263243e+04 -5.000000e+04
3.000000e+05 6.317960e+03 -5.000000e+04
3.329349e+05 -1.580352e+04 0.000000e+00
3.461572e+05 8.854694e+03 -2.503927e+04
3.333333e+04 -3.000000e+05 0.000000e+00
4.999999e+04 -3.000000e+05 -2.423892e+04
5.063514e+04 -3.328415e+05 0.000000e+00
3.468405e+04 -3.243713e+05 -2.478056e+04
-4.000000e+05 5.217391e+04 -5.000000e+04
-3.761490e+05 4.671498e+04 -2.533271e+04
-3.670913e+05 6.486035e+04 -5.000000e+04
-3.763451e+05 7.152968e+04 -2.659205e+04
-3.494435e+05 5.906246e+04 -2.495554e+04
-4.000000e+05 5.217391e+04 0.000000e+00
-3.672143e+05 6.907536e+04 0.000000e+00
-4.000000e+05 6.956522e+04 -2.479812e+04
-4.000000e+05 8.695652e+04 0.000000e+00
-3.773092e+05 9.370598e+04 -2.310057e+04
-1.029831e+05 3.668976e+05 -5.000000e+04
-1.285999e+05 3.481523e+05 -2.500799e+04
-9.430320e+04 3.496698e+05 -2.496278e+04
-1.196698e+05 3.754179e+05 -2.520742e+04
-4.000000e+05 1.043478e+05 -2.585127e+04
-4.000000e+05 1.217391e+05 0.000000e+00
-3.670445e+05 1.033589e+05 0.000000e+00
-3.784472e+05 1.216223e+05 -2.525066e+04
-3.671504e+05 9.984722e+04 -5.000000e+04
-4.000000e+05 1.217391e+05 -5.000000e+04
-3.518150e+05 1.239039e+05 -2.498195e+04
-1.854909e+05 3.326000e+05 -5.000000e+04
-1.715782e+05 3.667876e+05 -5.000000e+04
-2.059594e+05 3.668651e+05 -5.000000e+04
-1.949159e+05 3.518119e+05 -2.501748e+04
-3.685344e+05 -4.001205e+04 -5.000000e+04
-3.777980e+05 -4.402723e+04 -2.479253e+04
-3.513514e+05 -1.505841e+04 -2.514033e+04
-3.785245e+05 -1.648428e+04 -2.451245e+04
-4.000000e+05 -1.739130e+04 -5.000000e+04
-4.000000e+05 -3.478260e+04 -2.395986e+04
-3.670480e+05 -3.383533e+04 0.000000e+00
3.000000e+05 -1.143902e+05 -2.548291e+04
-4.000000e+05 -1.739130e+04 0.000000e+00
3.000000e+05 2.345935e+05 0.000000e+00
3.000000e+05 2.185827e+05 -2.423034e+04
3.237695e+05 2.403593e+05 -2.538032e+04
3.234880e+05 2.159433e+05 -2.715449e+04
3.328230e+05 2.204181e+05 0.000000e+00
3.000000e+05 2.018902e+05 0.000000e+00
3.222234e+05 1.912696e+05 -2.760593e+04
3.000000e+05 2.033094e+05 -5.000000e+04
3.329554e+05 1.883818e+05 -5.000000e+04
3.330197e+05 2.213769e+05 -5.000000e+04
3.000000e+05 2.355396e+05 -5.000000e+04
5.217391e+04 -4.000000e+05 -5.000000e+04
4.822279e+04 -3.761835e+05 -2.489046e+04
6.956522e+04 -4.000000e+05 -2.442176e+04
7.467376e+04 -3.751436e+05 -2.486351e+04
6.867436e+04 -3.670376e+05 -5.000000e+04
-3.680676e+05 -3.102454e+05 -5.000000e+04
-4.000000e+05 -2.956522e+05 -5.000000e+04
-4.000000e+05 -3.129450e+05 -2.471081e+04
-3.754651e+05 -2.988011e+05 -2.507448e+04
8.695652e+04 -4.000000e+05 -5.000000e+04
9.729544e+04 -3.774926e+05 -2.509494e+04
5.217391e+04 -4.000000e+05 0.000000e+00
6.874576e+04 -3.672032e+05 0.000000e+00
8.695652e+04 -4.000000e+05 0.000000e+00
5.891567e+04 -3.495321e+05 -2.495272e+04
3.672741e+05 -3.117788e+05 -5.000000e+04
4.000000e+05 -3.304348e+05 -5.000000e+04
4.000000e+05 -3.129826e+05 -2.495879e+04
3.738516e+05 -3.384516e+05 -2.239978e+04
-2.404610e+05 3.670426e+05 0.000000e+00
-1.333333e+05 3.000000e+05 0.000000e+00
-1.499994e+05 3.000000e+05 -2.403026e+04
-1.666667e+05 3.000000e+05 0.000000e+00
-1.519264e+05 3.329197e+05 0.000000e+00
-2.165723e+05 3.000000e+05 -2.560660e+04
-2.333333e+05 3.000000e+05 0.000000e+00
-2.000000e+05 3.000000e+05 0.000000e+00
-2.194203e+05 3.328736e+05 0.000000e+00
-4.000000e+05 -2.956522e+05 0.000000e+00
-3.670276e+05 -3.094409e+05 0.000000e+00
-1.517754e+05 3.326262e+05 -5.000000e+04
-1.180619e+05 3.326449e+05 -5.000000e+04
-1.340593e+05 3.221917e+05 -2.469176e+04
3.509225e+05 -3.669935e+05 0.000000e+00
3.319809e+05 -3.696896e+05 -2.602382e+04
3.448278e+05 -3.336564e+05 -2.377938e+04
4.000000e+05 -3.652174e+05 0.000000e+00
3.682669e+05 -3.723090e+05 -1.961320e+04
3.739662e+05 -2.951367e+05 -2.511275e+04
3.510512e+05 -3.693023e+05 -5.000000e+04
4.000000e+05 -3.470156e+05 -2.573153e+04
3.700520e+05 -3.432737e+05 -5.000000e+04
-3.000000e+05 1.341874e+05 0.000000e+00
-3.240811e+05 1.346462e+05 -2.508813e+04
-3.000000e+05 1.119133e+05 -2.512501e+04
-3.236189e+05 1.094018e+05 -2.287729e+04
-2.752133e+05 -3.666945e+05 0.000000e+00
-2.782548e+05 -4.000000e+05 -2.529878e+04
-2.956522e+05 -4.000000e+05 0.000000e+00
-2.961803e+05 -3.756864e+05 -2.338151e+04
-3.330014e+05 1.110677e+05 -5.000000e+04
-3.499452e+05 9.076670e+04 -2.474735e+04
-3.220639e+05 8.379236e+04 -2.241387e+04
3.328626e+05 1.553867e+05 -5.000000e+04
3.272780e+05 1.280625e+05 -1.788009e+04
3.492109e+05 1.657230e+05 -2.503498e+04
3.244617e+05 1.678413e+05 -2.496162e+04
-3.000000e+05 8.882203e+04 -5.000000e+04
-3.000000e+05 1.240184e+05 -5.000000e+04
3.327422e+05 1.535051e+05 0.000000e+00
3.670646e+05 1.380831e+05 0.000000e+00
3.327972e+05 1.197111e+05 0.000000e+00
3.516785e+05 1.309250e+05 -2.350011e+04
-3.328711e+05 1.188120e+05 0.000000e+00
-2.774301e+05 -3.000000e+05 -2.400592e+04
-2.666667e+05 -3.000000e+05 0.000000e+00
-3.000000e+05 -3.000000e+05 0.000000e+00
-2.887527e+05 -3.313076e+05 0.000000e+00
1.000000e+05 3.000000e+05 -5.000000e+04
1.166667e+05 3.000000e+05 -2.575187e+04
1.180714e+05 3.327255e+05 -5.000000e+04
9.951220e+04 3.220112e+05 -2.500087e+04
1.314601e+05 3.241679e+05 -2.354016e+04
9.364581e+04 3.501202e+05 -2.499158e+04
1.180711e+05 3.327220e+05 0.000000e+00
1.000000e+05 3.000000e+05 0.000000e+00
8.333333e+04 3.000000e+05 -2.488230e+04
6.666667e+04 3.000000e+05 0.000000e+00
8.437333e+04 3.328426e+05 0.000000e+00
-2.193729e+05 -3.327614e+05 0.000000e+00
-1.984489e+05 -3.487084e+05 -2.498389e+04
-2.255637e+05 -3.220916e+05 -2.480774e+04
-1.997150e+05 -3.216678e+05 -2.494973e+04
-2.166083e+05 -3.000000e+05 -2.432669e+04
-2.000000e+05 -3.000000e+05 0.000000e+00
1.181012e+05 -3.327393e+05 -5.000000e+04
1.181198e+05 -3.328215e+05 0.000000e+00
1.267692e+05 -3.500325e+05 -2.501203e+04
1.378469e+05 -3.238640e+05 -2.479444e+04
-2.194361e+05 -3.328434e+05 -5.000000e+04
3.000000e+05 -6.540655e+04 0.000000e+00
3.000000e+05 -4.704409e+04 -2.587389e+04
-2.000000e+05 -3.000000e+05 -5.000000e+04
-1.181761e+05 -3.329602e+05 -5.000000e+04
-1.256518e+05 -3.487565e+05 -2.501145e+04
-1.021642e+05 -3.239975e+05 -2.515764e+04
-1.357323e+05 -3.240118e+05 -2.507957e+04
8.695652e+04 4.000000e+05 -5.000000e+04
6.956522e+04 4.000000e+05 -2.479812e+04
6.873608e+04 3.672727e+05 -5.000000e+04
8.852908e+04 3.783599e+05 -2.511466e+04
-3.000000e+05 -3.000000e+05 -5.000000e+04
-3.334151e+05 -3.298278e+05 -5.000000e+04
-2.898053e+05 -3.326046e+05 -5.000000e+04
-3.144439e+05 -3.130012e+05 -2.491379e+04
6.182965e+04 3.779997e+05 -2.496700e+04
4.000000e+05 1.913043e+05 0.000000e+00
3.671396e+05 2.066670e+05 0.000000e+00
4.000000e+05 2.086957e+05 -2.620830e+04
3.759771e+05 1.891692e+05 -2.534471e+04
8.695652e+04 4.000000e+05 0.000000e+00
6.873267e+04 3.672065e+05 0.000000e+00
-3.435887e+04 -3.670248e+05 0.000000e+00
-3.478260e+04 -4.000000e+05 -2.451623e+04
-5.217391e+04 -4.000000e+05 0.000000e+00
-5.048147e+04 -3.761822e+05 -2.485406e+04
3.436651e+04 3.672768e+05 -5.000000e+04
1.739130e+04 4.000000e+05 -5.000000e+04
1.393202e+04 3.758346e+05 -2.491244e+04
4.003765e+04 3.757249e+05 -2.497885e+04
3.478260e+04 4.000000e+05 -2.504496e+04
5.217391e+04 4.000000e+05 0.000000e+00
3.435410e+04 3.670437e+05 0.000000e+00
2.755712e+04 3.505303e+05 -2.500575e+04
1.739130e+04 4.000000e+05 0.000000e+00
3.670891e+05 1.862933e+03 -5.000000e+04
3.742761e+05 1.677027e+04 -2.493456e+04
3.512355e+05 -2.497308e+04 -2.483192e+04
3.781086e+05 -1.765023e+04 -2.493225e+04
4.000000e+05 -1.739130e+04 -5.000000e+04
4.000000e+05 -1.192804e-02 -2.530346e+04
-3.328715e+05 -1.848068e+05 0.000000e+00
-3.671287e+05 -2.058668e+05 0.000000e+00
-3.671292e+05 -1.714095e+05 0.000000e+00
-3.501225e+05 -1.946877e+05 -2.524820e+04
3.672778e+05 4.586450e+02 0.000000e+00
-4.000000e+05 -2.260870e+05 -5.000000e+04
-4.000000e+05 -2.608696e+05 -5.000000e+04
-3.668871e+05 -2.388668e+05 -5.000000e+04
-4.000000e+05 -2.434777e+05 -2.599219e+04
4.000000e+05 -1.739130e+04 0.000000e+00
-3.000000e+05 1.842938e+04 -5.000000e+04
-3.329296e+05 5.601896e+03 -5.000000e+04
-3.225187e+05 -4.403791e+03 -2.678657e+04
-3.199464e+05 2.467194e+04 -2.281215e+04
-3.480737e+05 2.395723e+04 -2.492980e+04
-3.000000e+05 3.469979e+04 0.000000e+00
-3.328742e+05 5.154336e+04 0.000000e+00
-3.216158e+05 5.471200e+04 -2.444254e+04
-4.000000e+05 3.478260e+04 -2.504496e+04
-3.670456e+05 3.476383e+04 0.000000e+00
-4.000000e+05 1.739130e+04 0.000000e+00
-3.756042e+05 1.458470e+04 -2.490399e+04
-1.000000e+05 3.000000e+05 -5.000000e+04
-8.333335e+04 3.000000e+05 -2.367065e+04
-6.666667e+04 3.000000e+05 -5.000000e+04
-7.584987e+04 3.234585e+05 -2.456040e+04
-5.058931e+04 3.327252e+05 0.000000e+00
-6.107262e+04 3.493397e+05 -2.491598e+04
-4.618311e+04 3.199143e+05 -2.473589e+04
-8.432500e+04 3.326142e+05 -5.000000e+04
-1.035769e+05 3.235841e+05 -2.475576e+04
-6.666667e+04 3.000000e+05 0.000000e+00
-1.000000e+05 3.000000e+05 0.000000e+00
-8.439335e+04 3.328531e+05 0.000000e+00
[...]
CELL_DATA 20
SCALARS total_strain double 6
LOOKUP_TABLE default
-3.485398e-07 -2.918452e-07 1.506399e-05 3.027005e-07 -2.281581e-06 -4.606391e-06
-8.806451e-07 -4.524776e-07 -1.388943e-06 -1.779977e-07 -2.956883e-06 5.755601e-06
-2.323892e-06 -1.834134e-07 -2.176924e-05 -1.059335e-07 -6.443561e-07 -2.591395e-06
-1.809039e-06 -1.129230e-06 2.625845e-05 -6.598011e-07 -3.715519e-06 5.265114e-06
-2.870552e-07 6.685496e-07 -8.774759e-06 3.601311e-07 2.591939e-06 6.145556e-06
-2.534169e-06 -3.555243e-07 1.962230e-05 -3.866634e-07 4.946537e-06 -9.031971e-07
-8.491117e-07 -7.462968e-07 1.100449e-05 -4.678766e-08 -3.541468e-06 6.116659e-06
-9.838275e-07 5.732848e-08 -1.589742e-06 -2.928064e-07 7.439174e-06 3.483051e-06
-8.601247e-07 1.025683e-07 4.401285e-06 -3.715074e-07 9.757230e-06 -1.770058e-06
-4.472388e-07 -2.305667e-07 3.647941e-06 1.234853e-08 -2.667522e-06 -8.075931e-06
-2.939845e-07 -1.373497e-06 2.152488e-05 1.064501e-07 -2.570154e-06 -5.426518e-06
-2.439242e-06 7.204573e-09 1.324198e-05 -6.705269e-07 7.430828e-06 -1.122164e-06
-9.843465e-07 -1.660920e-07 -6.214022e-06 -5.086848e-07 -1.363624e-06 3.415640e-06
-4.480027e-07 3.847101e-07 8.660135e-06 7.338822e-09 6.231935e-06 -8.463900e-06
7.514852e-07 -6.268007e-07 -1.477227e-05 2.097023e-07 -7.020151e-06 5.495329e-07
-2.756910e-07 -2.944420e-07 1.256292e-05 4.716041e-07 -3.457350e-06 5.645799e-06
-3.213966e-06 -2.175534e-06 2.372459e-05 -1.444883e-06 -2.231904e-06 -4.337558e-06
-8.630681e-07 -1.963384e-06 1.559640e-05 -1.771188e-07 -1.643567e-06 6.319307e-06
-9.799320e-07 7.335734e-07 4.123154e-06 4.748519e-07 6.394265e-06 -8.395739e-07
-2.458570e-07 -4.303287e-08 -1.728246e-06 -1.892258e-07 -5.613062e-06 -4.021442e-06
SCALARS stress double 6
LOOKUP_TABLE default
-1.416125e+09 -1.216119e+09 -1.374497e+09 3.196517e+04 -2.409350e+05 -4.864349e+05
-1.416948e+09 -1.216903e+09 -1.377002e+09 -1.879656e+04 -3.122469e+05 6.077915e+05
-1.470114e+09 -1.269888e+09 -1.432168e+09 -1.118657e+04 -6.804400e+04 -2.736513e+05
-1.460111e+09 -1.260039e+09 -1.417147e+09 -6.967499e+04 -3.923588e+05 5.559960e+05
-1.418465e+09 -1.218365e+09 -1.379362e+09 3.802985e+04 2.737087e+05 6.489707e+05
-1.497946e+09 -1.297716e+09 -1.455606e+09 -4.083165e+04 5.223544e+05 -9.537762e+04
-1.430987e+09 -1.230976e+09 -1.389735e+09 -4.940777e+03 -3.739790e+05 6.459192e+05
-1.426095e+09 -1.225985e+09 -1.386159e+09 -3.092036e+04 7.855768e+05 3.678102e+05
-1.425806e+09 -1.225704e+09 -1.385250e+09 -3.923118e+04 1.030363e+06 -1.869181e+05
-1.425793e+09 -1.225770e+09 -1.385360e+09 1.304004e+03 -2.816903e+05 -8.528183e+05
-1.453340e+09 -1.253454e+09 -1.411036e+09 1.124113e+04 -2.714083e+05 -5.730403e+05
-1.455297e+09 -1.255039e+09 -1.413641e+09 -7.080764e+04 7.846954e+05 -1.185005e+05
-1.426312e+09 -1.226225e+09 -1.386864e+09 -5.371712e+04 -1.439987e+05 3.606916e+05
-1.425541e+09 -1.225453e+09 -1.384579e+09 7.749796e+02 6.580924e+05 -8.937878e+05
-1.417310e+09 -1.217455e+09 -1.378949e+09 2.214456e+04 -7.413279e+05 5.803068e+04
-1.417552e+09 -1.217554e+09 -1.376196e+09 4.980139e+04 -3.650962e+05 5.961963e+05
-1.496620e+09 -1.296511e+09 -1.453775e+09 -1.525797e+05 -2.356891e+05 -4.580461e+05
-1.459157e+09 -1.259273e+09 -1.417419e+09 -1.870375e+04 -1.735607e+05 6.673188e+05
-1.417989e+09 -1.217809e+09 -1.377451e+09 5.014436e+04 6.752344e+05 -8.865901e+04
-1.425994e+09 -1.225973e+09 -1.386151e+09 -1.998224e+04 -5.927394e+05 -4.246643e+05
