# vtk DataFile Version 2.0
Simplicial Mesh Example
ASCII
DATASET UNSTRUCTURED_GRID
POINTS 934 double
3.000000e+05 -9.891990e+04 0.000000e+00
3.328749e+05 -8.356390e+04 0.000000e+00
-2.260870e+05 4.000000e+05 0.000000e+00
-2.608696e+05 4.000000e+05 0.000000e+00
3.000000e+05 1.620150e+03 0.000000e+00
3.329349e+05 -1.580352e+04 0.000000e+00
3.333333e+04 -3.000000e+05 0.000000e+00
5.063514e+04 -3.328415e+05 0.000000e+00
-4.000000e+05 5.217391e+04 0.000000e+00
-3.672143e+05 6.907536e+04 0.000000e+00
-4.000000e+05 8.695652e+04 0.000000e+00
-4.000000e+05 1.217391e+05 0.000000e+00
-3.670445e+05 1.033589e+05 0.000000e+00
-3.670480e+05 -3.383533e+04 0.000000e+00
-4.000000e+05 -1.739130e+04 0.000000e+00
3.000000e+05 2.345935e+05 0.000000e+00
3.328230e+05 2.204181e+05 0.000000e+00
3.000000e+05 2.018902e+05 0.000000e+00
5.217391e+04 -4.000000e+05 0.000000e+00
6.874576e+04 -3.672032e+05 0.000000e+00
8.695652e+04 -4.000000e+05 0.000000e+00
-2.404610e+05 3.670426e+05 0.000000e+00
-1.333333e+05 3.000000e+05 0.000000e+00
-1.666667e+05 3.000000e+05 0.000000e+00
-1.519264e+05 3.329197e+05 0.000000e+00
-2.333333e+05 3.000000e+05 0.000000e+00
-2.000000e+05 3.000000e+05 0.000000e+00
-2.194203e+05 3.328736e+05 0.000000e+00
-4.000000e+05 -2.956522e+05 0.000000e+00
-3.670276e+05 -3.094409e+05 0.000000e+00
3.509225e+05 -3.669935e+05 0.000000e+00
4.000000e+05 -3.652174e+05 0.000000e+00
-3.000000e+05 1.341874e+05 0.000000e+00
-2.752133e+05 -3.666945e+05 0.000000e+00
-2.956522e+05 -4.000000e+05 0.000000e+00
3.327422e+05 1.535051e+05 0.000000e+00
3.670646e+05 1.380831e+05 0.000000e+00
3.327972e+05 1.197111e+05 0.000000e+00
-3.328711e+05 1.188120e+05 0.000000e+00
-2.666667e+05 -3.000000e+05 0.000000e+00
-3.000000e+05 -3.000000e+05 0.000000e+00
-2.887527e+05 -3.313076e+05 0.000000e+00
1.180711e+05 3.327220e+05 0.000000e+00
1.000000e+05 3.000000e+05 0.000000e+00
6.666667e+04 3.000000e+05 0.000000e+00
8.437333e+04 3.328426e+05 0.000000e+00
-2.193729e+05 -3.327614e+05 0.000000e+00
-2.000000e+05 -3.000000e+05 0.000000e+00
1.181198e+05 -3.328215e+05 0.000000e+00
3.000000e+05 -6.540655e+04 0.000000e+00
4.000000e+05 1.913043e+05 0.000000e+00
3.671396e+05 2.066670e+05 0.000000e+00
8.695652e+04 4.000000e+05 0.000000e+00
6.873267e+04 3.672065e+05 0.000000e+00
-3.435887e+04 -3.670248e+05 0.000000e+00
-5.217391e+04 -4.000000e+05 0.000000e+00
5.217391e+04 4.000000e+05 0.000000e+00
3.435410e+04 3.670437e+05 0.000000e+00
1.739130e+04 4.000000e+05 0.000000e+00
-3.328715e+05 -1.848068e+05 0.000000e+00
-3.671287e+05 -2.058668e+05 0.000000e+00
-3.671292e+05 -1.714095e+05 0.000000e+00
3.672778e+05 4.586450e+02 0.000000e+00
4.000000e+05 -1.739130e+04 0.000000e+00
-3.000000e+05 3.469979e+04 0.000000e+00
-3.328742e+05 5.154336e+04 0.000000e+00
-3.670456e+05 3.476383e+04 0.000000e+00
-4.000000e+05 1.739130e+04 0.000000e+00
-5.058931e+04 3.327252e+05 0.000000e+00
-6.666667e+04 3.000000e+05 0.000000e+00
-1.000000e+05 3.000000e+05 0.000000e+00
-8.439335e+04 3.328531e+05 0.000000e+00
-2.333333e+05 -3.000000e+05 0.000000e+00
-2.532232e+05 -3.324896e+05 0.000000e+00
-2.532897e+05 3.328415e+05 0.000000e+00
-3.328701e+05 -2.188027e+05 0.000000e+00
-3.000000e+05 -1.989752e+05 0.000000e+00
-4.000000e+05 -2.608696e+05 0.000000e+00
-3.671247e+05 -2.403228e+05 0.000000e+00
-3.670725e+05 -2.747880e+05 0.000000e+00
-1.031030e+05 -3.671959e+05 0.000000e+00
-8.695652e+04 -4.000000e+05 0.000000e+00
-1.217391e+05 -4.000000e+05 0.000000e+00
-4.000000e+05 -3.304348e+05 0.000000e+00
-3.508884e+05 -3.669673e+05 0.000000e+00
-3.697599e+05 -3.404129e+05 0.000000e+00
-4.000000e+05 -3.652174e+05 0.000000e+00
3.328711e+05 -1.513286e+05 0.000000e+00
3.328730e+05 -1.174440e+05 0.000000e+00
3.000000e+05 -1.324332e+05 0.000000e+00
-1.374821e+05 -3.672340e+05 0.000000e+00
3.652174e+05 4.000000e+05 0.000000e+00
3.678847e+05 3.496334e+05 0.000000e+00
3.419933e+05 3.684151e+05 0.000000e+00
3.105531e+05 3.659338e+05 0.000000e+00
3.304348e+05 4.000000e+05 0.000000e+00
4.000000e+05 1.217391e+05 0.000000e+00
3.000000e+05 3.513350e+04 0.000000e+00
3.328480e+05 5.196342e+04 0.000000e+00
3.330000e+05 1.806128e+04 0.000000e+00
-1.666667e+05 -3.000000e+05 0.000000e+00
-3.304348e+05 -4.000000e+05 0.000000e+00
-3.117485e+05 -3.655247e+05 0.000000e+00
-3.328368e+05 -2.528083e+05 0.000000e+00
-3.672145e+05 4.299700e+02 0.000000e+00
3.670491e+05 3.487383e+04 0.000000e+00
4.000000e+05 -3.304348e+05 0.000000e+00
3.670684e+05 6.928796e+04 0.000000e+00
-3.328730e+05 8.517471e+04 0.000000e+00
-3.000000e+05 1.010248e+05 0.000000e+00
-3.000000e+05 6.786232e+04 0.000000e+00
1.374019e+05 -3.670628e+05 0.000000e+00
1.030249e+05 -3.670155e+05 0.000000e+00
3.671294e+05 -3.095808e+05 0.000000e+00
3.669521e+05 -2.747914e+05 0.000000e+00
1.565217e+05 -4.000000e+05 0.000000e+00
1.716883e+05 -3.669668e+05 0.000000e+00
3.672064e+05 -1.716388e+05 0.000000e+00
4.000000e+05 -1.565217e+05 0.000000e+00
3.670445e+05 -1.371306e+05 0.000000e+00
2.887210e+05 -3.313936e+05 0.000000e+00
2.666667e+05 -3.000000e+05 0.000000e+00
2.534041e+05 -3.325633e+05 0.000000e+00
2.333333e+05 -3.000000e+05 0.000000e+00
1.030281e+05 3.669960e+05 0.000000e+00
1.374090e+05 3.670656e+05 0.000000e+00
1.217391e+05 4.000000e+05 0.000000e+00
-3.669051e+05 2.405341e+05 0.000000e+00
-4.000000e+05 2.260870e+05 0.000000e+00
1.333333e+05 3.000000e+05 0.000000e+00
1.518766e+05 3.328223e+05 0.000000e+00
-2.061074e+05 -3.670548e+05 0.000000e+00
-2.260870e+05 -4.000000e+05 0.000000e+00
-3.432872e+04 3.669981e+05 0.000000e+00
-1.739130e+04 4.000000e+05 0.000000e+00
-3.590340e+00 3.672078e+05 0.000000e+00
2.884798e+05 3.314621e+05 0.000000e+00
2.531877e+05 3.324795e+05 0.000000e+00
2.666667e+05 3.000000e+05 0.000000e+00
1.666667e+05 -3.000000e+05 0.000000e+00
1.856049e+05 -3.327889e+05 0.000000e+00
3.000000e+05 -2.664866e+05 0.000000e+00
3.327702e+05 -2.529933e+05 0.000000e+00
3.325352e+05 -2.874344e+05 0.000000e+00
3.328857e+05 -4.967812e+04 0.000000e+00
3.000000e+05 -3.189320e+04 0.000000e+00
-4.000000e+05 1.565217e+05 0.000000e+00
-3.669945e+05 1.719199e+05 0.000000e+00
-3.672065e+05 1.377150e+05 0.000000e+00
3.324227e+05 2.879511e+05 0.000000e+00
3.000000e+05 2.672967e+05 0.000000e+00
3.327533e+05 2.537014e+05 0.000000e+00
2.956522e+05 -4.000000e+05 0.000000e+00
2.752640e+05 -3.667277e+05 0.000000e+00
3.119520e+05 -3.656352e+05 0.000000e+00
-1.182350e+05 3.330168e+05 0.000000e+00
-1.913043e+05 4.000000e+05 0.000000e+00
-2.062347e+05 3.672173e+05 0.000000e+00
-1.717544e+05 3.670745e+05 0.000000e+00
3.670080e+05 1.723656e+05 0.000000e+00
3.672145e+05 -1.028017e+05 0.000000e+00
4.000000e+05 -1.217391e+05 0.000000e+00
3.670560e+05 -2.403570e+05 0.000000e+00
4.000000e+05 -2.260870e+05 0.000000e+00
3.669945e+05 -2.058917e+05 0.000000e+00
-1.518804e+05 -3.328503e+05 0.000000e+00
-1.855416e+05 -3.327175e+05 0.000000e+00
1.913043e+05 4.000000e+05 0.000000e+00
2.062117e+05 3.671955e+05 0.000000e+00
1.717360e+05 3.670148e+05 0.000000e+00
3.697864e+05 -3.404567e+05 0.000000e+00
3.312024e+05 -3.274634e+05 0.000000e+00
-3.667113e+05 2.751633e+05 0.000000e+00
-4.000000e+05 2.956522e+05 0.000000e+00
-1.333333e+05 -3.000000e+05 0.000000e+00
-1.181629e+05 -3.329166e+05 0.000000e+00
-2.956522e+05 4.000000e+05 0.000000e+00
-2.751595e+05 3.671921e+05 0.000000e+00
-3.106869e+05 3.669419e+05 0.000000e+00
-1.030751e+05 3.670669e+05 0.000000e+00
-1.375643e+05 3.673619e+05 0.000000e+00
3.434189e+04 -3.669957e+05 0.000000e+00
-2.564528e+00 -3.670661e+05 0.000000e+00
-1.739130e+04 -4.000000e+05 0.000000e+00
1.913043e+05 -4.000000e+05 0.000000e+00
2.061032e+05 -3.670526e+05 0.000000e+00
2.404356e+05 -3.669112e+05 0.000000e+00
2.260870e+05 -4.000000e+05 0.000000e+00
-3.328745e+05 -1.572825e+04 0.000000e+00
-3.328929e+05 -8.305011e+04 0.000000e+00
-3.000000e+05 -3.162526e+04 0.000000e+00
-3.328779e+05 -4.937584e+04 0.000000e+00
3.669682e+05 2.750075e+05 0.000000e+00
4.000000e+05 2.608696e+05 0.000000e+00
-3.000000e+05 -6.478778e+04 0.000000e+00
3.671154e+05 2.408341e+05 0.000000e+00
2.956522e+05 4.000000e+05 0.000000e+00
2.750320e+05 3.665971e+05 0.000000e+00
-2.666667e+05 3.000000e+05 0.000000e+00
-3.000000e+05 1.537267e+03 0.000000e+00
-3.328734e+05 1.790426e+04 0.000000e+00
-8.444588e+04 -3.330216e+05 0.000000e+00
-1.000000e+05 -3.000000e+05 0.000000e+00
3.669694e+05 1.036703e+05 0.000000e+00
4.000000e+05 8.695652e+04 0.000000e+00
3.328420e+05 -1.851831e+05 0.000000e+00
3.000000e+05 -1.994599e+05 0.000000e+00
3.327172e+05 -2.189571e+05 0.000000e+00
-5.064585e+04 -3.328913e+05 0.000000e+00
-3.657865e+05 3.104953e+05 0.000000e+00
-4.000000e+05 -5.217391e+04 0.000000e+00
-3.672341e+05 -6.823904e+04 0.000000e+00
2.000000e+05 3.000000e+05 0.000000e+00
1.856552e+05 3.328617e+05 0.000000e+00
2.194018e+05 3.328033e+05 0.000000e+00
4.000000e+05 1.565217e+05 0.000000e+00
-6.666667e+04 -3.000000e+05 0.000000e+00
1.687733e+04 3.328695e+05 0.000000e+00
3.333333e+04 3.000000e+05 0.000000e+00
5.063456e+04 3.328710e+05 0.000000e+00
-4.000000e+05 -8.695652e+04 0.000000e+00
4.000000e+05 -2.956522e+05 0.000000e+00
3.000000e+05 -1.659466e+05 0.000000e+00
2.000000e+05 -3.000000e+05 0.000000e+00
2.193067e+05 -3.326910e+05 0.000000e+00
4.000000e+05 2.260870e+05 0.000000e+00
6.666667e+04 -3.000000e+05 0.000000e+00
1.739130e+04 -4.000000e+05 0.000000e+00
-2.404411e+05 -3.669029e+05 0.000000e+00
-3.328420e+05 1.524231e+05 0.000000e+00
2.404328e+05 3.669052e+05 0.000000e+00
2.333333e+05 3.000000e+05 0.000000e+00
-3.327623e+05 2.196748e+05 0.000000e+00
-3.327171e+05 1.859721e+05 0.000000e+00
3.667841e+05 3.105226e+05 0.000000e+00
4.000000e+05 2.956522e+05 0.000000e+00
-3.328769e+05 -1.168548e+05 0.000000e+00
-6.870638e+04 3.670734e+05 0.000000e+00
-5.217391e+04 4.000000e+05 0.000000e+00
3.670511e+05 -6.832630e+04 0.000000e+00
3.328741e+05 1.871163e+05 0.000000e+00
-3.325388e+05 -2.873491e+05 0.000000e+00
-3.000000e+05 -2.663251e+05 0.000000e+00
-8.695652e+04 4.000000e+05 0.000000e+00
1.565217e+05 4.000000e+05 0.000000e+00
1.666667e+05 3.000000e+05 0.000000e+00
-1.687948e+04 -3.328265e+05 0.000000e+00
[...]
POINT_DATA 934
VECTORS displacement double
-8.784227e-03 8.775037e-04 -4.674810e-03
-6.080708e-03 3.980441e-04 -4.024895e-03
-3.359544e-03 0.000000e+00 -5.660203e-03
-2.484088e-03 0.000000e+00 -5.257525e-03
-9.066255e-03 -1.549828e-03 -4.842018e-03
-6.220469e-03 -1.092648e-03 -4.111108e-03
-1.103370e-02 1.174879e-03 -9.529910e-03
-1.165392e-02 1.863972e-03 -8.043057e-03
0.000000e+00 -2.771539e-03 -1.715175e-02
-8.080600e-03 -2.355528e-03 -1.570006e-02
0.000000e+00 -4.574227e-03 -1.670436e-02
0.000000e+00 -6.321217e-03 -1.568040e-02
-5.935431e-03 -4.226041e-03 -1.572560e-02
-1.175266e-02 -4.430487e-04 -1.508242e-02
0.000000e+00 -6.208372e-04 -1.666487e-02
-5.825177e-03 -3.548132e-03 -3.211601e-03
-4.116581e-03 -3.393143e-03 -3.025114e-03
-6.343253e-03 -3.847004e-03 -3.464306e-03
-1.171604e-02 0.000000e+00 -6.962704e-03
-1.188638e-02 1.206660e-03 -6.802424e-03
-1.187733e-02 0.000000e+00 -6.055476e-03
-3.032419e-03 -2.088927e-03 -5.839529e-03
-6.444633e-03 -2.664531e-03 -8.800067e-03
-5.610317e-03 -3.061960e-03 -8.664374e-03
-5.680054e-03 -2.979009e-03 -7.514628e-03
-3.783157e-03 -4.400834e-03 -8.125224e-03
-4.737775e-03 -3.681131e-03 -8.422177e-03
-3.806689e-03 -3.578386e-03 -6.971387e-03
0.000000e+00 6.443397e-03 -9.089114e-03
-7.601245e-04 5.673886e-03 -8.637936e-03
-2.721244e-03 5.134436e-04 -2.601249e-03
0.000000e+00 5.033196e-04 -2.538395e-03
-1.703621e-02 4.838695e-03 -9.179393e-03
-2.865711e-03 1.678059e-03 -8.192292e-03
-2.212338e-03 0.000000e+00 -7.402719e-03
-4.896725e-03 -3.604831e-03 -3.422534e-03
-2.509399e-03 -3.347497e-03 -3.213440e-03
-5.287689e-03 -3.433916e-03 -3.627932e-03
-1.202420e-02 -6.973511e-04 -1.284908e-02
-4.407386e-03 2.384556e-03 -1.054460e-02
-3.152027e-03 3.825114e-03 -1.005800e-02
-2.844384e-03 3.174798e-03 -9.005914e-03
-1.011697e-02 -3.106698e-03 -4.585030e-03
-1.074055e-02 -4.412143e-03 -5.725172e-03
-1.060149e-02 -4.387064e-03 -6.541777e-03
-1.027762e-02 -3.274484e-03 -5.195332e-03
-5.205644e-03 8.291589e-04 -1.025794e-02
-6.823079e-03 -2.393431e-03 -1.139733e-02
-1.194505e-02 2.259939e-03 -6.079233e-03
-9.031528e-03 1.175268e-04 -4.801407e-03
0.000000e+00 -3.302110e-03 -2.900880e-03
-2.104189e-03 -3.282957e-03 -2.896069e-03
-9.883909e-03 0.000000e+00 -4.393830e-03
-9.986667e-03 -1.713225e-03 -4.851241e-03
-9.984407e-03 4.049996e-04 -9.390016e-03
-9.566038e-03 0.000000e+00 -9.323904e-03
-9.833864e-03 0.000000e+00 -4.879142e-03
-9.781231e-03 -1.778717e-03 -5.407622e-03
-9.520727e-03 0.000000e+00 -5.361249e-03
-8.249007e-03 1.703939e-03 -1.339741e-02
-2.570841e-03 6.272813e-03 -1.407694e-02
-4.158514e-03 4.618918e-03 -1.538065e-02
-3.037445e-03 -1.411183e-03 -3.646317e-03
0.000000e+00 -1.039684e-03 -3.536526e-03
-4.530714e-02 1.120139e-02 8.873672e-03
-2.295497e-02 3.052510e-03 -8.610123e-03
-1.012783e-02 -1.115735e-03 -1.549423e-02
0.000000e+00 -1.463374e-03 -1.712431e-02
-8.352396e-03 -2.940386e-03 -7.343590e-03
-7.958555e-03 -2.761245e-03 -8.610742e-03
-7.203568e-03 -2.601553e-03 -8.767856e-03
-7.499041e-03 -2.852058e-03 -7.562402e-03
-5.769478e-03 5.588824e-05 -1.109111e-02
-4.009348e-03 2.138896e-03 -9.629547e-03
-2.886396e-03 -3.934266e-03 -6.540654e-03
-5.197738e-03 3.942382e-03 -1.310430e-02
-1.139948e-02 -2.548651e-03 -1.129084e-02
0.000000e+00 7.433805e-03 -1.097319e-02
-1.606766e-03 7.058487e-03 -1.229033e-02
-1.142804e-03 6.636696e-03 -1.036666e-02
-8.107440e-03 -4.289811e-06 -1.024657e-02
-8.575702e-03 0.000000e+00 -9.739641e-03
-7.524104e-03 0.000000e+00 -9.917006e-03
0.000000e+00 4.763473e-03 -7.594954e-03
-9.613575e-04 2.289584e-03 -6.901406e-03
-5.754615e-04 4.080867e-03 -7.398489e-03
0.000000e+00 2.539087e-03 -6.600363e-03
-5.574386e-03 1.518287e-03 -3.722169e-03
-5.870692e-03 1.028911e-03 -3.898018e-03
-8.412777e-03 1.516755e-03 -4.460691e-03
-7.167847e-03 -1.368747e-04 -1.034444e-02
-1.566083e-03 0.000000e+00 -2.433498e-03
-1.496722e-03 -1.115932e-03 -2.468628e-03
-2.624925e-03 -7.362863e-04 -2.483140e-03
-4.016666e-03 -8.561805e-04 -2.551227e-03
-3.107807e-03 0.000000e+00 -2.478741e-03
0.000000e+00 -3.191614e-03 -3.191138e-03
-8.856368e-03 -2.360398e-03 -4.729228e-03
-5.929671e-03 -2.517516e-03 -3.970670e-03
-6.120020e-03 -1.843412e-03 -4.068189e-03
-7.539923e-03 -4.447930e-03 -1.170219e-02
-1.380499e-03 0.000000e+00 -6.802503e-03
-1.857989e-03 2.145753e-03 -7.523443e-03
-3.252021e-03 5.277898e-03 -1.171199e-02
-1.165128e-02 -5.550986e-04 -1.520423e-02
-2.985963e-03 -2.086485e-03 -3.594384e-03
0.000000e+00 9.707251e-04 -2.594306e-03
-2.857541e-03 -2.661580e-03 -3.501603e-03
-1.706521e-02 1.809876e-03 -1.110914e-02
-2.613851e-02 9.977124e-03 -5.252600e-03
-3.626250e-02 1.259031e-02 1.444809e-03
-1.152473e-02 1.213802e-03 -5.050013e-03
-1.189967e-02 1.261347e-03 -5.885120e-03
-1.969473e-03 1.245540e-03 -2.681858e-03
-2.129525e-03 1.568075e-03 -2.799086e-03
-1.105165e-02 0.000000e+00 -4.509567e-03
-1.078167e-02 1.116528e-03 -4.338528e-03
-2.639941e-03 1.540014e-03 -3.268742e-03
0.000000e+00 1.346767e-03 -3.240191e-03
-2.818103e-03 1.173627e-03 -3.421816e-03
-6.276284e-03 1.323850e-03 -3.009934e-03
-7.802958e-03 2.009474e-03 -3.442010e-03
-8.030115e-03 1.553432e-03 -3.346281e-03
-9.440948e-03 2.361837e-03 -3.948896e-03
-9.904908e-03 -1.638721e-03 -4.331076e-03
-9.520013e-03 -1.503594e-03 -3.849434e-03
-9.627841e-03 0.000000e+00 -3.916961e-03
-9.658664e-04 -8.476199e-03 -9.377508e-03
0.000000e+00 -8.927366e-03 -1.009390e-02
-1.048829e-02 -4.216419e-03 -4.999394e-03
-9.630980e-03 -2.860144e-03 -4.039912e-03
-5.009247e-03 7.207327e-04 -9.555375e-03
-4.252215e-03 0.000000e+00 -8.786407e-03
-8.653890e-03 -1.722856e-03 -6.276916e-03
-8.953928e-03 0.000000e+00 -5.793843e-03
-9.309529e-03 -1.739149e-03 -5.899295e-03
-5.165266e-03 -1.805189e-03 -2.723684e-03
-6.608046e-03 -2.018788e-03 -2.920486e-03
-6.451968e-03 -2.734521e-03 -3.027513e-03
-1.180036e-02 2.999412e-03 -5.439952e-03
-1.071745e-02 2.066930e-03 -4.428101e-03
-6.419780e-03 2.068803e-03 -3.311776e-03
-4.515519e-03 1.871846e-03 -3.090194e-03
-4.203747e-03 1.617441e-03 -2.912069e-03
-6.209470e-03 -3.276484e-04 -4.105211e-03
-9.126185e-03 -7.107842e-04 -4.860865e-03
0.000000e+00 -7.853549e-03 -1.417736e-02
-2.583461e-03 -7.678377e-03 -1.330909e-02
-4.034246e-03 -6.159396e-03 -1.484131e-02
-3.489690e-03 -2.457720e-03 -2.699106e-03
-5.343160e-03 -3.063485e-03 -2.983537e-03
-3.779387e-03 -3.007076e-03 -2.842458e-03
-5.621655e-03 0.000000e+00 -2.786821e-03
-6.702169e-03 7.148399e-04 -2.968457e-03
-4.841354e-03 6.232094e-04 -2.738673e-03
-6.591453e-03 -2.883838e-03 -7.608008e-03
-4.329326e-03 0.000000e+00 -6.024120e-03
-3.956224e-03 -1.931254e-03 -6.197541e-03
-4.942371e-03 -1.819243e-03 -6.478672e-03
-2.309453e-03 -3.409787e-03 -3.051328e-03
-2.935441e-03 6.516885e-04 -3.543285e-03
0.000000e+00 9.127685e-04 -3.370035e-03
-2.289263e-03 1.733418e-03 -2.944527e-03
0.000000e+00 1.696880e-03 -2.945240e-03
-2.474695e-03 1.727705e-03 -3.106118e-03
-6.995243e-03 -1.146069e-03 -1.104087e-02
-6.203635e-03 -2.945676e-04 -1.075244e-02
-8.254507e-03 0.000000e+00 -3.154187e-03
-7.924745e-03 -1.191976e-03 -3.099485e-03
-8.851848e-03 -1.354040e-03 -3.434311e-03
-1.733695e-03 8.584737e-04 -2.607552e-03
-3.982496e-03 1.149536e-03 -2.751593e-03
-6.735224e-04 -7.522086e-03 -7.532845e-03
0.000000e+00 -6.799045e-03 -6.452842e-03
-7.732177e-03 -5.713031e-03 -1.168599e-02
-7.697559e-03 -1.498463e-03 -1.115156e-02
-1.716100e-03 0.000000e+00 -4.861198e-03
-2.184820e-03 -2.183218e-03 -5.428036e-03
-1.434433e-03 -2.280964e-03 -5.027643e-03
-6.913220e-03 -1.708564e-03 -6.677078e-03
-5.931106e-03 -1.739330e-03 -6.635692e-03
-1.149800e-02 1.034055e-03 -7.745262e-03
-1.081443e-02 7.009208e-04 -8.647193e-03
-1.047709e-02 0.000000e+00 -8.669538e-03
-1.008418e-02 0.000000e+00 -3.874141e-03
-9.680472e-03 9.772981e-04 -3.744519e-03
-8.309171e-03 8.406209e-04 -3.296326e-03
-8.817691e-03 0.000000e+00 -3.391306e-03
-2.970174e-02 -2.421997e-05 -5.267896e-03
-2.490798e-02 -3.364443e-03 -8.042918e-03
-5.522681e-02 -3.475612e-03 1.791896e-02
-2.832392e-02 -2.761409e-03 -5.929977e-03
-1.771810e-03 -2.521152e-03 -2.635968e-03
0.000000e+00 -2.680436e-03 -2.647563e-03
-4.603702e-02 -1.015131e-02 1.373235e-02
-1.923912e-03 -2.979881e-03 -2.754979e-03
-4.588931e-03 0.000000e+00 -2.564072e-03
-5.489041e-03 -9.417374e-04 -2.671316e-03
-2.839958e-03 -5.167741e-03 -7.568634e-03
-5.263062e-02 6.205738e-03 1.582781e-02
-2.687918e-02 2.075578e-03 -5.905586e-03
-8.366577e-03 -1.222927e-03 -1.094368e-02
-7.816124e-03 -5.607282e-03 -1.160760e-02
-2.709183e-03 -3.096168e-03 -3.375437e-03
0.000000e+00 -2.851011e-03 -3.325856e-03
-5.232038e-03 1.829094e-03 -3.513714e-03
-7.439202e-03 2.213573e-03 -3.888301e-03
-4.876001e-03 1.947128e-03 -3.298065e-03
-9.177414e-03 -5.419760e-04 -1.049885e-02
-5.380777e-04 -5.929860e-03 -6.000799e-03
0.000000e+00 1.833962e-06 -1.697551e-02
-1.050273e-02 -1.481582e-04 -1.557618e-02
-8.997074e-03 -3.489370e-03 -3.814985e-03
-8.859621e-03 -2.572645e-03 -3.575597e-03
-7.838015e-03 -2.279717e-03 -3.199409e-03
0.000000e+00 -3.343255e-03 -3.045703e-03
-8.185236e-03 -4.325391e-03 -1.138016e-02
-9.702922e-03 -3.258788e-03 -6.422805e-03
-1.016890e-02 -4.187441e-03 -7.239455e-03
-1.012495e-02 -3.327158e-03 -5.838582e-03
0.000000e+00 1.224396e-03 -1.717819e-02
0.000000e+00 1.353337e-03 -2.685264e-03
-7.951033e-03 1.971122e-03 -4.187872e-03
-1.080308e-02 2.713211e-03 -4.614174e-03
-9.519612e-03 1.815720e-03 -3.816640e-03
0.000000e+00 -3.075263e-03 -2.765198e-03
-1.195784e-02 2.354117e-03 -8.549884e-03
-1.120650e-02 0.000000e+00 -7.873461e-03
-3.919582e-03 1.222583e-03 -8.908946e-03
-8.026800e-03 -3.305034e-03 -1.319115e-02
-6.796711e-03 -1.057910e-03 -2.849943e-03
-7.817000e-03 -3.086578e-03 -3.349290e-03
-2.974000e-03 -7.069792e-03 -1.067037e-02
-4.963700e-03 -5.626324e-03 -1.224850e-02
-1.641873e-03 -1.907566e-03 -2.538669e-03
0.000000e+00 -2.142653e-03 -2.550992e-03
-1.790759e-02 -2.757209e-03 -9.669027e-03
-7.835728e-03 -1.698580e-03 -6.553036e-03
-8.209708e-03 0.000000e+00 -6.110018e-03
-3.039365e-03 1.194359e-05 -3.625069e-03
-4.496620e-03 -3.589942e-03 -3.216876e-03
-2.142268e-03 5.414110e-03 -1.005540e-02
-4.234862e-03 3.592989e-03 -1.135175e-02
-7.328237e-03 0.000000e+00 -6.296964e-03
-9.075063e-03 0.000000e+00 -3.498231e-03
-9.891762e-03 -3.873419e-03 -4.339246e-03
-1.007180e-02 2.919687e-04 -9.800147e-03
-8.933206e-03 -2.425062e-03 -1.090968e-02
-6.077324e-03 2.297977e-03 -1.600335e-02
0.000000e+00 5.097569e-03 -1.617854e-02
0.000000e+00 -8.808700e-03 -1.220643e-02
-1.590057e-03 -8.506823e-03 -1.137726e-02
-1.094403e-02 1.198662e-03 -8.970987e-03
-1.233732e-02 3.120290e-03 -6.419457e-03
-1.156663e-02 2.266887e-03 -5.194191e-03
0.000000e+00 -1.733094e-03 -3.501771e-03
-9.049003e-03 1.335166e-04 -9.935383e-03
-3.060677e-03 -6.931124e-04 -3.658222e-03
-4.751865e-03 -3.241537e-03 -7.293902e-03
-6.354382e-03 0.000000e+00 -6.340305e-03
-6.956909e-03 1.161127e-03 -1.220934e-02
-7.497714e-03 -3.847848e-03 -4.028720e-03
-8.020319e-03 -3.535958e-03 -4.299174e-03
-7.309605e-03 0.000000e+00 -3.035269e-03
-2.032668e-03 -4.208084e-03 -6.100648e-03
-8.444756e-03 -3.024764e-03 -4.553794e-03
0.000000e+00 -7.636012e-04 -2.438407e-03
-5.968486e-03 1.688435e-03 -3.091265e-03
-5.648415e-03 -3.063350e-03 -3.816165e-03
0.000000e+00 -2.352977e-03 -3.430101e-03
-3.336684e-03 -1.653020e-03 -2.573419e-03
-1.583393e-03 4.311661e-03 -8.339142e-03
-7.401668e-04 -2.290537e-03 -4.623261e-03
-1.165780e-03 -4.667044e-03 -5.671271e-03
0.000000e+00 -8.207139e-03 -8.118472e-03
-1.863324e-03 -7.431900e-03 -8.964052e-03
-8.738180e-03 -3.205640e-03 -8.285626e-03
-9.092146e-03 -3.054664e-03 -6.961109e-03
-3.803354e-03 0.000000e+00 -2.630733e-03
-8.352058e-03 8.236714e-04 -1.597367e-02
0.000000e+00 3.041933e-03 -1.688146e-02
-1.275879e-02 -1.031375e-03 -1.212381e-02
-5.001216e-04 0.000000e+00 -4.292985e-03
0.000000e+00 0.000000e+00 -4.267774e-03
0.000000e+00 -2.476359e-03 -4.446441e-03
0.000000e+00 -3.291632e-04 -3.521500e-03
-4.519344e-04 -4.050805e-03 -5.039777e-03
-1.347723e-03 -6.605490e-03 -7.232986e-03
-1.061859e-03 0.000000e+00 -4.508488e-03
0.000000e+00 6.672133e-03 -1.496792e-02
-1.204140e-02 2.227353e-03 -7.056642e-03
-6.909754e-03 2.242920e-03 -3.591282e-03
-9.537016e-03 -3.770061e-03 -7.848796e-03
-4.939398e-03 -2.429166e-03 -2.803382e-03
0.000000e+00 1.604871e-03 -2.804660e-03
0.000000e+00 -1.489882e-03 -2.478928e-03
-6.103330e-03 2.583338e-04 -1.010978e-02
0.000000e+00 3.380988e-04 -3.466255e-03
-7.203632e-03 0.000000e+00 -2.889177e-03
-3.190523e-03 0.000000e+00 -8.094141e-03
0.000000e+00 1.612024e-03 -3.094864e-03
-2.034689e-03 -5.580871e-03 -7.148612e-03
-5.967471e-03 0.000000e+00 -2.696198e-03
0.000000e+00 -4.824516e-03 -5.225208e-03
-1.000023e-02 -4.153791e-04 -1.031373e-02
-5.354371e-03 0.000000e+00 -9.382911e-03
-1.229483e-02 2.837991e-03 -7.533719e-03
0.000000e+00 7.575418e-03 -1.303220e-02
0.000000e+00 0.000000e+00 -2.426917e-03
-2.562826e-03 -6.417678e-03 -8.573052e-03
-6.469306e-04 0.000000e+00 -6.426467e-03
-1.166659e-02 0.000000e+00 -5.238695e-03
-1.914161e-03 0.000000e+00 -2.553801e-03
0.000000e+00 0.000000e+00 -2.530966e-03
-3.801051e-03 -5.879058e-03 -1.023933e-02
-6.252663e-03 -3.786837e-03 -1.127873e-02
-5.342526e-03 0.000000e+00 -6.244080e-03
-6.455499e-03 0.000000e+00 -9.779298e-03
-1.043045e-02 -1.455571e-04 -1.124305e-02
0.000000e+00 0.000000e+00 -6.274451e-03
-4.250657e-02 -1.105996e-02 1.012441e-02
-2.691310e-02 -7.113497e-03 -2.283261e-03
-3.205203e-02 -1.157165e-02 2.431134e-03
-2.604753e-02 -1.033296e-02 -1.746582e-03
-3.101128e-02 -7.255416e-03 -3.708638e-04
-5.920732e-03 -3.779484e-03 -3.581001e-03
-7.208743e-03 -3.928528e-03 -3.906733e-03
-5.687250e-03 -3.765373e-03 -3.470549e-03
-6.628057e-03 -3.921785e-03 -3.613865e-03
-1.755646e-02 -6.768735e-03 -7.774777e-03
-3.817697e-02 -1.220158e-02 6.927398e-03
-4.046406e-02 -1.157431e-02 8.475517e-03
-3.210614e-02 -9.558455e-03 1.970774e-03
-3.508618e-02 -1.206038e-02 4.736029e-03
-3.432540e-02 -9.455298e-03 3.190358e-03
-7.063085e-03 -3.951885e-03 -3.833229e-03
-6.425354e-03 -3.869370e-03 -3.664565e-03
-6.916573e-03 -3.959923e-03 -3.755768e-03
-6.295505e-03 -3.859329e-03 -3.606070e-03
-6.769444e-03 -3.945844e-03 -3.684530e-03
-6.503976e-02 2.727890e-02 3.083907e-02
-6.821126e-03 1.883994e-03 -9.705176e-03
-4.898773e-03 3.933400e-03 -8.683782e-03
-8.926885e-03 -1.816598e-03 -9.700505e-03
-1.907449e-02 9.574435e-03 -6.529683e-03
-3.064802e-02 1.762123e-02 1.766874e-03
-1.178750e-02 -5.052842e-03 -6.348592e-03
-1.018168e-02 -4.726242e-03 -5.040854e-03
-9.294339e-03 1.507252e-02 -6.484486e-03
-7.416759e-03 5.172278e-03 -9.559876e-03
-1.173615e-02 -4.836796e-03 -9.065247e-03
-1.450027e-02 1.661132e-02 -4.761155e-03
-1.578156e-02 3.280111e-02 3.715790e-03
-3.202817e-02 6.685595e-02 3.230800e-02
-2.189148e-01 7.639908e-03 3.472227e-01
-4.631542e-02 2.427710e-02 1.348101e-02
-1.073743e-02 -3.475203e-03 -9.863226e-03
-6.160343e-03 6.728791e-04 -9.470544e-03
-8.062717e-05 4.331787e-03 -6.521251e-03
-8.216410e-03 -1.375253e-03 -9.625393e-03
-7.038572e-03 -3.542917e-04 -9.756613e-03
-5.644712e-04 1.854927e-02 -3.213103e-03
-5.315357e-03 6.621220e-03 -8.454663e-03
-4.540760e-05 1.428418e-02 -4.759150e-03
2.149167e-03 5.954534e-02 2.344440e-02
-8.689971e-02 -1.394751e-02 5.683768e-02
-8.339517e-02 2.134633e-02 4.969902e-02
-8.951242e-03 -2.483725e-03 -9.288142e-03
-9.837141e-03 -3.612495e-03 -8.724941e-03
-7.798097e-03 -3.594523e-03 -3.508256e-03
-9.008927e-03 -4.039825e-03 -3.986679e-03
1.318644e-04 3.149372e-02 2.292658e-03
7.967324e-03 3.562743e-02 9.421876e-03
-8.281177e-03 -4.282932e-03 -4.092299e-03
-2.058797e-01 9.253370e-02 3.232806e-01
-1.436834e-01 1.159085e-01 1.997459e-01
-1.149742e-01 1.848190e-01 2.625164e-01
-1.114085e-02 -5.015993e-03 -7.213497e-03
-1.121409e-02 -5.116174e-03 -6.250983e-03
-1.130957e-02 2.612037e-03 -1.007664e-02
-6.644196e-03 -2.155893e-03 -1.070374e-02
-6.261284e-03 -1.193340e-03 -1.025009e-02
-6.564682e-03 -7.727963e-04 -9.765984e-03
-5.389929e-02 4.326380e-02 3.059748e-02
-8.399441e-02 9.016790e-02 9.245693e-02
-3.112302e-02 2.792293e-02 6.926144e-03
-7.634378e-03 -4.069434e-03 -3.720361e-03
-1.894560e-02 6.283164e-02 2.323049e-02
3.286946e-02 2.579657e-01 3.893152e-01
-3.944271e-02 1.972009e-01 2.146413e-01
7.389320e-02 1.786425e-01 2.356108e-01
2.375903e-02 1.673362e-01 1.677854e-01
-3.930375e-03 -5.007056e-03 -9.641029e-03
-4.217610e-03 -4.196159e-03 -9.216500e-03
-7.496422e-03 -4.749160e-04 -9.733713e-03
-8.143161e-03 -1.294365e-03 -9.608559e-03
-5.133642e-03 -2.828358e-03 -9.587841e-03
-5.929335e-03 -1.546545e-03 -9.749834e-03
-7.067744e-03 1.678428e-03 -1.003590e-02
-1.118928e-02 -5.258800e-03 -5.722094e-03
-8.370482e-02 5.660255e-02 6.520838e-02
-1.010268e-02 -4.470146e-03 -4.610220e-03
-1.159991e-02 -5.485498e-03 -6.723350e-03
-1.085548e-02 -4.876220e-03 -5.375519e-03
-8.396413e-03 7.372403e-02 3.567838e-02
-1.024610e-02 3.751789e-02 5.424065e-03
-7.254736e-03 1.696214e-02 -5.848038e-03
-5.404496e-03 1.526225e-02 -6.293510e-03
-6.611417e-02 2.845281e-01 5.109996e-01
-1.865803e-01 2.047133e-01 4.808428e-01
5.061449e-02 2.875704e-01 7.242502e-01
-2.519185e-01 1.087524e-01 6.551602e-01
-1.145132e-02 -5.213813e-03 -7.813299e-03
-1.078693e-02 -4.398577e-03 -8.708707e-03
1.319968e-02 6.574697e-02 3.154749e-02
3.676782e-02 1.162589e-01 9.439661e-02
-1.261189e-02 -4.956975e-03 -7.785222e-03
1.156563e-01 1.248614e-01 2.157901e-01
1.306533e-01 2.060286e-01 4.408076e-01
-9.701276e-03 -2.817571e-03 -9.318291e-03
-8.437718e-03 -7.082906e-04 -9.764593e-03
-9.392479e-03 6.391429e-03 -8.952321e-03
-6.051653e-02 1.183062e-01 1.050966e-01
-4.902980e-03 2.910499e-03 -8.744747e-03
-2.949066e-02 1.051290e-01 7.327619e-02
-1.043347e-02 5.066143e-03 -9.405849e-03
-1.077914e-02 -4.162413e-03 -9.194300e-03
-8.447445e-03 -1.215760e-03 -9.622195e-03
-7.002085e-03 -3.608040e-03 -3.363072e-03
-8.879710e-03 -4.340692e-03 -4.064432e-03
-1.248420e-02 -5.114498e-03 -8.446581e-03
-1.206026e-02 -5.564733e-03 -7.327165e-03
-1.182053e-02 -4.029990e-03 -9.380065e-03
1.575621e-02 1.541909e-02 4.806772e-03
4.015865e-02 3.500278e-02 3.208473e-02
-1.819575e-02 1.461066e-02 -4.418807e-03
-1.215783e-01 5.534253e-02 1.116457e-01
-6.958799e-03 4.123642e-03 -9.646327e-03
-7.030081e-03 5.488138e-03 -9.437468e-03
-1.470971e-01 -1.464610e-02 1.515797e-01
-1.032869e-02 -4.857212e-03 -4.887784e-03
-3.901890e-03 3.560346e-02 4.566056e-03
-1.053465e-02 -4.451970e-03 -8.058208e-03
-9.267866e-03 -2.179865e-03 -9.873291e-03
-1.219550e-02 -5.423679e-03 -6.923171e-03
6.146375e-02 9.951548e-02 1.068855e-01
1.403675e-02 3.284547e-02 1.097176e-02
-1.463217e-01 2.621153e-02 1.460542e-01
2.985230e-03 9.558081e-03 -4.719278e-03
1.857753e-02 2.614072e-02 9.885466e-03
4.065750e-02 5.492423e-02 4.516320e-02
2.621176e-03 1.341968e-02 -3.339667e-03
-9.229543e-03 -4.548972e-03 -4.408698e-03
-1.077261e-02 -5.081159e-03 -5.299763e-03
-7.442704e-03 3.967027e-03 -9.769845e-03
2.675562e-02 6.553913e-02 4.226417e-02
-7.440127e-03 1.966699e-03 -9.804194e-03
-4.532370e-03 1.148236e-02 -7.636958e-03
-2.601124e-02 3.542976e-02 9.824163e-03
-4.617247e-02 5.962346e-02 3.773857e-02
7.514362e-02 6.896499e-02 9.337857e-02
-1.185656e-02 -5.394348e-03 -8.131302e-03
8.590786e-03 9.980468e-02 6.827822e-02
-7.751382e-03 1.305007e-01 9.942650e-02
-1.146137e-02 -5.369283e-03 -5.967686e-03
-1.322766e-01 2.544569e-01 8.565059e-01
-1.013646e-02 1.193106e-02 -7.741306e-03
-9.438311e-02 4.177018e-03 6.010625e-02
-5.807707e-02 -1.683800e-02 2.766520e-02
-7.629239e-03 -4.127172e-03 -3.918571e-03
-8.723081e-03 -4.335278e-03 -4.315736e-03
-7.928128e-02 -2.018601e-02 4.936141e-02
-1.063615e-01 -2.839484e-02 8.890082e-02
-1.379481e-01 -3.050352e-02 1.370656e-01
-1.736512e-01 -3.856034e-02 2.220610e-01
-2.074814e-01 -3.018059e-02 3.253087e-01
-2.306897e-01 -1.711122e-02 4.830400e-01
-2.543764e-01 2.659395e-02 6.478724e-01
-2.252744e-01 9.693502e-02 8.241408e-01
-1.617381e-01 1.799164e-01 9.467482e-01
-5.079737e-02 2.283142e-01 9.709696e-01
5.110667e-02 2.640846e-01 9.030399e-01
1.307514e-01 2.349929e-01 7.372114e-01
1.626228e-01 1.913699e-01 5.843984e-01